PSF EXT CMAP XPLOR AUTOG

         3 !NTITLE
* GENERATED BY CHARMM-GUI (HTTP://WWW.CHARMM-GUI.ORG) V3.7 ON OCT, 25. 2022. JOB
* ASSEMBLE PREVIOUSLY GENERATED COMPONENTS (LIPID BILAYER, PROTEIN, PORE WATER, 
*  DATE:    10/25/22     16:32:34      CREATED BY USER: apache                  

     29852 !NATOM
         1 MEMB     1        POPC     N        NTL     -0.600000       14.0070           0
         2 MEMB     1        POPC     C12      CTL2    -0.100000       12.0110           0
         3 MEMB     1        POPC     H12A     HL       0.250000       1.00800           0
         4 MEMB     1        POPC     H12B     HL       0.250000       1.00800           0
         5 MEMB     1        POPC     C13      CTL5    -0.350000       12.0110           0
         6 MEMB     1        POPC     H13A     HL       0.250000       1.00800           0
         7 MEMB     1        POPC     H13B     HL       0.250000       1.00800           0
         8 MEMB     1        POPC     H13C     HL       0.250000       1.00800           0
         9 MEMB     1        POPC     C14      CTL5    -0.350000       12.0110           0
        10 MEMB     1        POPC     H14A     HL       0.250000       1.00800           0
        11 MEMB     1        POPC     H14B     HL       0.250000       1.00800           0
        12 MEMB     1        POPC     H14C     HL       0.250000       1.00800           0
        13 MEMB     1        POPC     C15      CTL5    -0.350000       12.0110           0
        14 MEMB     1        POPC     H15A     HL       0.250000       1.00800           0
        15 MEMB     1        POPC     H15B     HL       0.250000       1.00800           0
        16 MEMB     1        POPC     H15C     HL       0.250000       1.00800           0
        17 MEMB     1        POPC     C11      CTL2    -0.800000E-01   12.0110           0
        18 MEMB     1        POPC     H11A     HAL2     0.900000E-01   1.00800           0
        19 MEMB     1        POPC     H11B     HAL2     0.900000E-01   1.00800           0
        20 MEMB     1        POPC     P        PL        1.50000       30.9740           0
        21 MEMB     1        POPC     O13      O2L     -0.780000       15.9994           0
        22 MEMB     1        POPC     O14      O2L     -0.780000       15.9994           0
        23 MEMB     1        POPC     O12      OSLP    -0.570000       15.9994           0
        24 MEMB     1        POPC     O11      OSLP    -0.570000       15.9994           0
        25 MEMB     1        POPC     C1       CTL2    -0.800000E-01   12.0110           0
        26 MEMB     1        POPC     HA       HAL2     0.900000E-01   1.00800           0
        27 MEMB     1        POPC     HB       HAL2     0.900000E-01   1.00800           0
        28 MEMB     1        POPC     C2       CTL1     0.170000       12.0110           0
        29 MEMB     1        POPC     HS       HAL1     0.900000E-01   1.00800           0
        30 MEMB     1        POPC     O21      OSL     -0.490000       15.9994           0
        31 MEMB     1        POPC     C21      CL       0.900000       12.0110           0
        32 MEMB     1        POPC     O22      OBL     -0.630000       15.9994           0
        33 MEMB     1        POPC     C22      CTL2    -0.220000       12.0110           0
        34 MEMB     1        POPC     H2R      HAL2     0.900000E-01   1.00800           0
        35 MEMB     1        POPC     H2S      HAL2     0.900000E-01   1.00800           0
        36 MEMB     1        POPC     C3       CTL2     0.800000E-01   12.0110           0
        37 MEMB     1        POPC     HX       HAL2     0.900000E-01   1.00800           0
        38 MEMB     1        POPC     HY       HAL2     0.900000E-01   1.00800           0
        39 MEMB     1        POPC     O31      OSL     -0.490000       15.9994           0
        40 MEMB     1        POPC     C31      CL       0.900000       12.0110           0
        41 MEMB     1        POPC     O32      OBL     -0.630000       15.9994           0
        42 MEMB     1        POPC     C32      CTL2    -0.220000       12.0110           0
        43 MEMB     1        POPC     H2X      HAL2     0.900000E-01   1.00800           0
        44 MEMB     1        POPC     H2Y      HAL2     0.900000E-01   1.00800           0
        45 MEMB     1        POPC     C23      CTL2    -0.180000       12.0110           0
        46 MEMB     1        POPC     H3R      HAL2     0.900000E-01   1.00800           0
        47 MEMB     1        POPC     H3S      HAL2     0.900000E-01   1.00800           0
        48 MEMB     1        POPC     C24      CTL2    -0.180000       12.0110           0
        49 MEMB     1        POPC     H4R      HAL2     0.900000E-01   1.00800           0
        50 MEMB     1        POPC     H4S      HAL2     0.900000E-01   1.00800           0
        51 MEMB     1        POPC     C25      CTL2    -0.180000       12.0110           0
        52 MEMB     1        POPC     H5R      HAL2     0.900000E-01   1.00800           0
        53 MEMB     1        POPC     H5S      HAL2     0.900000E-01   1.00800           0
        54 MEMB     1        POPC     C26      CTL2    -0.180000       12.0110           0
        55 MEMB     1        POPC     H6R      HAL2     0.900000E-01   1.00800           0
        56 MEMB     1        POPC     H6S      HAL2     0.900000E-01   1.00800           0
        57 MEMB     1        POPC     C27      CTL2    -0.180000       12.0110           0
        58 MEMB     1        POPC     H7R      HAL2     0.900000E-01   1.00800           0
        59 MEMB     1        POPC     H7S      HAL2     0.900000E-01   1.00800           0
        60 MEMB     1        POPC     C28      CTL2    -0.180000       12.0110           0
        61 MEMB     1        POPC     H8R      HAL2     0.900000E-01   1.00800           0
        62 MEMB     1        POPC     H8S      HAL2     0.900000E-01   1.00800           0
        63 MEMB     1        POPC     C29      CEL1    -0.150000       12.0110           0
        64 MEMB     1        POPC     H91      HEL1     0.150000       1.00800           0
        65 MEMB     1        POPC     C210     CEL1    -0.150000       12.0110           0
        66 MEMB     1        POPC     H101     HEL1     0.150000       1.00800           0
        67 MEMB     1        POPC     C211     CTL2    -0.180000       12.0110           0
        68 MEMB     1        POPC     H11R     HAL2     0.900000E-01   1.00800           0
        69 MEMB     1        POPC     H11S     HAL2     0.900000E-01   1.00800           0
        70 MEMB     1        POPC     C212     CTL2    -0.180000       12.0110           0
        71 MEMB     1        POPC     H12R     HAL2     0.900000E-01   1.00800           0
        72 MEMB     1        POPC     H12S     HAL2     0.900000E-01   1.00800           0
        73 MEMB     1        POPC     C213     CTL2    -0.180000       12.0110           0
        74 MEMB     1        POPC     H13R     HAL2     0.900000E-01   1.00800           0
        75 MEMB     1        POPC     H13S     HAL2     0.900000E-01   1.00800           0
        76 MEMB     1        POPC     C214     CTL2    -0.180000       12.0110           0
        77 MEMB     1        POPC     H14R     HAL2     0.900000E-01   1.00800           0
        78 MEMB     1        POPC     H14S     HAL2     0.900000E-01   1.00800           0
        79 MEMB     1        POPC     C215     CTL2    -0.180000       12.0110           0
        80 MEMB     1        POPC     H15R     HAL2     0.900000E-01   1.00800           0
        81 MEMB     1        POPC     H15S     HAL2     0.900000E-01   1.00800           0
        82 MEMB     1        POPC     C216     CTL2    -0.180000       12.0110           0
        83 MEMB     1        POPC     H16R     HAL2     0.900000E-01   1.00800           0
        84 MEMB     1        POPC     H16S     HAL2     0.900000E-01   1.00800           0
        85 MEMB     1        POPC     C217     CTL2    -0.180000       12.0110           0
        86 MEMB     1        POPC     H17R     HAL2     0.900000E-01   1.00800           0
        87 MEMB     1        POPC     H17S     HAL2     0.900000E-01   1.00800           0
        88 MEMB     1        POPC     C218     CTL3    -0.270000       12.0110           0
        89 MEMB     1        POPC     H18R     HAL3     0.900000E-01   1.00800           0
        90 MEMB     1        POPC     H18S     HAL3     0.900000E-01   1.00800           0
        91 MEMB     1        POPC     H18T     HAL3     0.900000E-01   1.00800           0
        92 MEMB     1        POPC     C33      CTL2    -0.180000       12.0110           0
        93 MEMB     1        POPC     H3X      HAL2     0.900000E-01   1.00800           0
        94 MEMB     1        POPC     H3Y      HAL2     0.900000E-01   1.00800           0
        95 MEMB     1        POPC     C34      CTL2    -0.180000       12.0110           0
        96 MEMB     1        POPC     H4X      HAL2     0.900000E-01   1.00800           0
        97 MEMB     1        POPC     H4Y      HAL2     0.900000E-01   1.00800           0
        98 MEMB     1        POPC     C35      CTL2    -0.180000       12.0110           0
        99 MEMB     1        POPC     H5X      HAL2     0.900000E-01   1.00800           0
       100 MEMB     1        POPC     H5Y      HAL2     0.900000E-01   1.00800           0
       101 MEMB     1        POPC     C36      CTL2    -0.180000       12.0110           0
       102 MEMB     1        POPC     H6X      HAL2     0.900000E-01   1.00800           0
       103 MEMB     1        POPC     H6Y      HAL2     0.900000E-01   1.00800           0
       104 MEMB     1        POPC     C37      CTL2    -0.180000       12.0110           0
       105 MEMB     1        POPC     H7X      HAL2     0.900000E-01   1.00800           0
       106 MEMB     1        POPC     H7Y      HAL2     0.900000E-01   1.00800           0
       107 MEMB     1        POPC     C38      CTL2    -0.180000       12.0110           0
       108 MEMB     1        POPC     H8X      HAL2     0.900000E-01   1.00800           0
       109 MEMB     1        POPC     H8Y      HAL2     0.900000E-01   1.00800           0
       110 MEMB     1        POPC     C39      CTL2    -0.180000       12.0110           0
       111 MEMB     1        POPC     H9X      HAL2     0.900000E-01   1.00800           0
       112 MEMB     1        POPC     H9Y      HAL2     0.900000E-01   1.00800           0
       113 MEMB     1        POPC     C310     CTL2    -0.180000       12.0110           0
       114 MEMB     1        POPC     H10X     HAL2     0.900000E-01   1.00800           0
       115 MEMB     1        POPC     H10Y     HAL2     0.900000E-01   1.00800           0
       116 MEMB     1        POPC     C311     CTL2    -0.180000       12.0110           0
       117 MEMB     1        POPC     H11X     HAL2     0.900000E-01   1.00800           0
       118 MEMB     1        POPC     H11Y     HAL2     0.900000E-01   1.00800           0
       119 MEMB     1        POPC     C312     CTL2    -0.180000       12.0110           0
       120 MEMB     1        POPC     H12X     HAL2     0.900000E-01   1.00800           0
       121 MEMB     1        POPC     H12Y     HAL2     0.900000E-01   1.00800           0
       122 MEMB     1        POPC     C313     CTL2    -0.180000       12.0110           0
       123 MEMB     1        POPC     H13X     HAL2     0.900000E-01   1.00800           0
       124 MEMB     1        POPC     H13Y     HAL2     0.900000E-01   1.00800           0
       125 MEMB     1        POPC     C314     CTL2    -0.180000       12.0110           0
       126 MEMB     1        POPC     H14X     HAL2     0.900000E-01   1.00800           0
       127 MEMB     1        POPC     H14Y     HAL2     0.900000E-01   1.00800           0
       128 MEMB     1        POPC     C315     CTL2    -0.180000       12.0110           0
       129 MEMB     1        POPC     H15X     HAL2     0.900000E-01   1.00800           0
       130 MEMB     1        POPC     H15Y     HAL2     0.900000E-01   1.00800           0
       131 MEMB     1        POPC     C316     CTL3    -0.270000       12.0110           0
       132 MEMB     1        POPC     H16X     HAL3     0.900000E-01   1.00800           0
       133 MEMB     1        POPC     H16Y     HAL3     0.900000E-01   1.00800           0
       134 MEMB     1        POPC     H16Z     HAL3     0.900000E-01   1.00800           0
       135 MEMB     2        POPC     N        NTL     -0.600000       14.0070           0
       136 MEMB     2        POPC     C12      CTL2    -0.100000       12.0110           0
       137 MEMB     2        POPC     H12A     HL       0.250000       1.00800           0
       138 MEMB     2        POPC     H12B     HL       0.250000       1.00800           0
       139 MEMB     2        POPC     C13      CTL5    -0.350000       12.0110           0
       140 MEMB     2        POPC     H13A     HL       0.250000       1.00800           0
       141 MEMB     2        POPC     H13B     HL       0.250000       1.00800           0
       142 MEMB     2        POPC     H13C     HL       0.250000       1.00800           0
       143 MEMB     2        POPC     C14      CTL5    -0.350000       12.0110           0
       144 MEMB     2        POPC     H14A     HL       0.250000       1.00800           0
       145 MEMB     2        POPC     H14B     HL       0.250000       1.00800           0
       146 MEMB     2        POPC     H14C     HL       0.250000       1.00800           0
       147 MEMB     2        POPC     C15      CTL5    -0.350000       12.0110           0
       148 MEMB     2        POPC     H15A     HL       0.250000       1.00800           0
       149 MEMB     2        POPC     H15B     HL       0.250000       1.00800           0
       150 MEMB     2        POPC     H15C     HL       0.250000       1.00800           0
       151 MEMB     2        POPC     C11      CTL2    -0.800000E-01   12.0110           0
       152 MEMB     2        POPC     H11A     HAL2     0.900000E-01   1.00800           0
       153 MEMB     2        POPC     H11B     HAL2     0.900000E-01   1.00800           0
       154 MEMB     2        POPC     P        PL        1.50000       30.9740           0
       155 MEMB     2        POPC     O13      O2L     -0.780000       15.9994           0
       156 MEMB     2        POPC     O14      O2L     -0.780000       15.9994           0
       157 MEMB     2        POPC     O12      OSLP    -0.570000       15.9994           0
       158 MEMB     2        POPC     O11      OSLP    -0.570000       15.9994           0
       159 MEMB     2        POPC     C1       CTL2    -0.800000E-01   12.0110           0
       160 MEMB     2        POPC     HA       HAL2     0.900000E-01   1.00800           0
       161 MEMB     2        POPC     HB       HAL2     0.900000E-01   1.00800           0
       162 MEMB     2        POPC     C2       CTL1     0.170000       12.0110           0
       163 MEMB     2        POPC     HS       HAL1     0.900000E-01   1.00800           0
       164 MEMB     2        POPC     O21      OSL     -0.490000       15.9994           0
       165 MEMB     2        POPC     C21      CL       0.900000       12.0110           0
       166 MEMB     2        POPC     O22      OBL     -0.630000       15.9994           0
       167 MEMB     2        POPC     C22      CTL2    -0.220000       12.0110           0
       168 MEMB     2        POPC     H2R      HAL2     0.900000E-01   1.00800           0
       169 MEMB     2        POPC     H2S      HAL2     0.900000E-01   1.00800           0
       170 MEMB     2        POPC     C3       CTL2     0.800000E-01   12.0110           0
       171 MEMB     2        POPC     HX       HAL2     0.900000E-01   1.00800           0
       172 MEMB     2        POPC     HY       HAL2     0.900000E-01   1.00800           0
       173 MEMB     2        POPC     O31      OSL     -0.490000       15.9994           0
       174 MEMB     2        POPC     C31      CL       0.900000       12.0110           0
       175 MEMB     2        POPC     O32      OBL     -0.630000       15.9994           0
       176 MEMB     2        POPC     C32      CTL2    -0.220000       12.0110           0
       177 MEMB     2        POPC     H2X      HAL2     0.900000E-01   1.00800           0
       178 MEMB     2        POPC     H2Y      HAL2     0.900000E-01   1.00800           0
       179 MEMB     2        POPC     C23      CTL2    -0.180000       12.0110           0
       180 MEMB     2        POPC     H3R      HAL2     0.900000E-01   1.00800           0
       181 MEMB     2        POPC     H3S      HAL2     0.900000E-01   1.00800           0
       182 MEMB     2        POPC     C24      CTL2    -0.180000       12.0110           0
       183 MEMB     2        POPC     H4R      HAL2     0.900000E-01   1.00800           0
       184 MEMB     2        POPC     H4S      HAL2     0.900000E-01   1.00800           0
       185 MEMB     2        POPC     C25      CTL2    -0.180000       12.0110           0
       186 MEMB     2        POPC     H5R      HAL2     0.900000E-01   1.00800           0
       187 MEMB     2        POPC     H5S      HAL2     0.900000E-01   1.00800           0
       188 MEMB     2        POPC     C26      CTL2    -0.180000       12.0110           0
       189 MEMB     2        POPC     H6R      HAL2     0.900000E-01   1.00800           0
       190 MEMB     2        POPC     H6S      HAL2     0.900000E-01   1.00800           0
       191 MEMB     2        POPC     C27      CTL2    -0.180000       12.0110           0
       192 MEMB     2        POPC     H7R      HAL2     0.900000E-01   1.00800           0
       193 MEMB     2        POPC     H7S      HAL2     0.900000E-01   1.00800           0
       194 MEMB     2        POPC     C28      CTL2    -0.180000       12.0110           0
       195 MEMB     2        POPC     H8R      HAL2     0.900000E-01   1.00800           0
       196 MEMB     2        POPC     H8S      HAL2     0.900000E-01   1.00800           0
       197 MEMB     2        POPC     C29      CEL1    -0.150000       12.0110           0
       198 MEMB     2        POPC     H91      HEL1     0.150000       1.00800           0
       199 MEMB     2        POPC     C210     CEL1    -0.150000       12.0110           0
       200 MEMB     2        POPC     H101     HEL1     0.150000       1.00800           0
       201 MEMB     2        POPC     C211     CTL2    -0.180000       12.0110           0
       202 MEMB     2        POPC     H11R     HAL2     0.900000E-01   1.00800           0
       203 MEMB     2        POPC     H11S     HAL2     0.900000E-01   1.00800           0
       204 MEMB     2        POPC     C212     CTL2    -0.180000       12.0110           0
       205 MEMB     2        POPC     H12R     HAL2     0.900000E-01   1.00800           0
       206 MEMB     2        POPC     H12S     HAL2     0.900000E-01   1.00800           0
       207 MEMB     2        POPC     C213     CTL2    -0.180000       12.0110           0
       208 MEMB     2        POPC     H13R     HAL2     0.900000E-01   1.00800           0
       209 MEMB     2        POPC     H13S     HAL2     0.900000E-01   1.00800           0
       210 MEMB     2        POPC     C214     CTL2    -0.180000       12.0110           0
       211 MEMB     2        POPC     H14R     HAL2     0.900000E-01   1.00800           0
       212 MEMB     2        POPC     H14S     HAL2     0.900000E-01   1.00800           0
       213 MEMB     2        POPC     C215     CTL2    -0.180000       12.0110           0
       214 MEMB     2        POPC     H15R     HAL2     0.900000E-01   1.00800           0
       215 MEMB     2        POPC     H15S     HAL2     0.900000E-01   1.00800           0
       216 MEMB     2        POPC     C216     CTL2    -0.180000       12.0110           0
       217 MEMB     2        POPC     H16R     HAL2     0.900000E-01   1.00800           0
       218 MEMB     2        POPC     H16S     HAL2     0.900000E-01   1.00800           0
       219 MEMB     2        POPC     C217     CTL2    -0.180000       12.0110           0
       220 MEMB     2        POPC     H17R     HAL2     0.900000E-01   1.00800           0
       221 MEMB     2        POPC     H17S     HAL2     0.900000E-01   1.00800           0
       222 MEMB     2        POPC     C218     CTL3    -0.270000       12.0110           0
       223 MEMB     2        POPC     H18R     HAL3     0.900000E-01   1.00800           0
       224 MEMB     2        POPC     H18S     HAL3     0.900000E-01   1.00800           0
       225 MEMB     2        POPC     H18T     HAL3     0.900000E-01   1.00800           0
       226 MEMB     2        POPC     C33      CTL2    -0.180000       12.0110           0
       227 MEMB     2        POPC     H3X      HAL2     0.900000E-01   1.00800           0
       228 MEMB     2        POPC     H3Y      HAL2     0.900000E-01   1.00800           0
       229 MEMB     2        POPC     C34      CTL2    -0.180000       12.0110           0
       230 MEMB     2        POPC     H4X      HAL2     0.900000E-01   1.00800           0
       231 MEMB     2        POPC     H4Y      HAL2     0.900000E-01   1.00800           0
       232 MEMB     2        POPC     C35      CTL2    -0.180000       12.0110           0
       233 MEMB     2        POPC     H5X      HAL2     0.900000E-01   1.00800           0
       234 MEMB     2        POPC     H5Y      HAL2     0.900000E-01   1.00800           0
       235 MEMB     2        POPC     C36      CTL2    -0.180000       12.0110           0
       236 MEMB     2        POPC     H6X      HAL2     0.900000E-01   1.00800           0
       237 MEMB     2        POPC     H6Y      HAL2     0.900000E-01   1.00800           0
       238 MEMB     2        POPC     C37      CTL2    -0.180000       12.0110           0
       239 MEMB     2        POPC     H7X      HAL2     0.900000E-01   1.00800           0
       240 MEMB     2        POPC     H7Y      HAL2     0.900000E-01   1.00800           0
       241 MEMB     2        POPC     C38      CTL2    -0.180000       12.0110           0
       242 MEMB     2        POPC     H8X      HAL2     0.900000E-01   1.00800           0
       243 MEMB     2        POPC     H8Y      HAL2     0.900000E-01   1.00800           0
       244 MEMB     2        POPC     C39      CTL2    -0.180000       12.0110           0
       245 MEMB     2        POPC     H9X      HAL2     0.900000E-01   1.00800           0
       246 MEMB     2        POPC     H9Y      HAL2     0.900000E-01   1.00800           0
       247 MEMB     2        POPC     C310     CTL2    -0.180000       12.0110           0
       248 MEMB     2        POPC     H10X     HAL2     0.900000E-01   1.00800           0
       249 MEMB     2        POPC     H10Y     HAL2     0.900000E-01   1.00800           0
       250 MEMB     2        POPC     C311     CTL2    -0.180000       12.0110           0
       251 MEMB     2        POPC     H11X     HAL2     0.900000E-01   1.00800           0
       252 MEMB     2        POPC     H11Y     HAL2     0.900000E-01   1.00800           0
       253 MEMB     2        POPC     C312     CTL2    -0.180000       12.0110           0
       254 MEMB     2        POPC     H12X     HAL2     0.900000E-01   1.00800           0
       255 MEMB     2        POPC     H12Y     HAL2     0.900000E-01   1.00800           0
       256 MEMB     2        POPC     C313     CTL2    -0.180000       12.0110           0
       257 MEMB     2        POPC     H13X     HAL2     0.900000E-01   1.00800           0
       258 MEMB     2        POPC     H13Y     HAL2     0.900000E-01   1.00800           0
       259 MEMB     2        POPC     C314     CTL2    -0.180000       12.0110           0
       260 MEMB     2        POPC     H14X     HAL2     0.900000E-01   1.00800           0
       261 MEMB     2        POPC     H14Y     HAL2     0.900000E-01   1.00800           0
       262 MEMB     2        POPC     C315     CTL2    -0.180000       12.0110           0
       263 MEMB     2        POPC     H15X     HAL2     0.900000E-01   1.00800           0
       264 MEMB     2        POPC     H15Y     HAL2     0.900000E-01   1.00800           0
       265 MEMB     2        POPC     C316     CTL3    -0.270000       12.0110           0
       266 MEMB     2        POPC     H16X     HAL3     0.900000E-01   1.00800           0
       267 MEMB     2        POPC     H16Y     HAL3     0.900000E-01   1.00800           0
       268 MEMB     2        POPC     H16Z     HAL3     0.900000E-01   1.00800           0
       269 MEMB     3        POPC     N        NTL     -0.600000       14.0070           0
       270 MEMB     3        POPC     C12      CTL2    -0.100000       12.0110           0
       271 MEMB     3        POPC     H12A     HL       0.250000       1.00800           0
       272 MEMB     3        POPC     H12B     HL       0.250000       1.00800           0
       273 MEMB     3        POPC     C13      CTL5    -0.350000       12.0110           0
       274 MEMB     3        POPC     H13A     HL       0.250000       1.00800           0
       275 MEMB     3        POPC     H13B     HL       0.250000       1.00800           0
       276 MEMB     3        POPC     H13C     HL       0.250000       1.00800           0
       277 MEMB     3        POPC     C14      CTL5    -0.350000       12.0110           0
       278 MEMB     3        POPC     H14A     HL       0.250000       1.00800           0
       279 MEMB     3        POPC     H14B     HL       0.250000       1.00800           0
       280 MEMB     3        POPC     H14C     HL       0.250000       1.00800           0
       281 MEMB     3        POPC     C15      CTL5    -0.350000       12.0110           0
       282 MEMB     3        POPC     H15A     HL       0.250000       1.00800           0
       283 MEMB     3        POPC     H15B     HL       0.250000       1.00800           0
       284 MEMB     3        POPC     H15C     HL       0.250000       1.00800           0
       285 MEMB     3        POPC     C11      CTL2    -0.800000E-01   12.0110           0
       286 MEMB     3        POPC     H11A     HAL2     0.900000E-01   1.00800           0
       287 MEMB     3        POPC     H11B     HAL2     0.900000E-01   1.00800           0
       288 MEMB     3        POPC     P        PL        1.50000       30.9740           0
       289 MEMB     3        POPC     O13      O2L     -0.780000       15.9994           0
       290 MEMB     3        POPC     O14      O2L     -0.780000       15.9994           0
       291 MEMB     3        POPC     O12      OSLP    -0.570000       15.9994           0
       292 MEMB     3        POPC     O11      OSLP    -0.570000       15.9994           0
       293 MEMB     3        POPC     C1       CTL2    -0.800000E-01   12.0110           0
       294 MEMB     3        POPC     HA       HAL2     0.900000E-01   1.00800           0
       295 MEMB     3        POPC     HB       HAL2     0.900000E-01   1.00800           0
       296 MEMB     3        POPC     C2       CTL1     0.170000       12.0110           0
       297 MEMB     3        POPC     HS       HAL1     0.900000E-01   1.00800           0
       298 MEMB     3        POPC     O21      OSL     -0.490000       15.9994           0
       299 MEMB     3        POPC     C21      CL       0.900000       12.0110           0
       300 MEMB     3        POPC     O22      OBL     -0.630000       15.9994           0
       301 MEMB     3        POPC     C22      CTL2    -0.220000       12.0110           0
       302 MEMB     3        POPC     H2R      HAL2     0.900000E-01   1.00800           0
       303 MEMB     3        POPC     H2S      HAL2     0.900000E-01   1.00800           0
       304 MEMB     3        POPC     C3       CTL2     0.800000E-01   12.0110           0
       305 MEMB     3        POPC     HX       HAL2     0.900000E-01   1.00800           0
       306 MEMB     3        POPC     HY       HAL2     0.900000E-01   1.00800           0
       307 MEMB     3        POPC     O31      OSL     -0.490000       15.9994           0
       308 MEMB     3        POPC     C31      CL       0.900000       12.0110           0
       309 MEMB     3        POPC     O32      OBL     -0.630000       15.9994           0
       310 MEMB     3        POPC     C32      CTL2    -0.220000       12.0110           0
       311 MEMB     3        POPC     H2X      HAL2     0.900000E-01   1.00800           0
       312 MEMB     3        POPC     H2Y      HAL2     0.900000E-01   1.00800           0
       313 MEMB     3        POPC     C23      CTL2    -0.180000       12.0110           0
       314 MEMB     3        POPC     H3R      HAL2     0.900000E-01   1.00800           0
       315 MEMB     3        POPC     H3S      HAL2     0.900000E-01   1.00800           0
       316 MEMB     3        POPC     C24      CTL2    -0.180000       12.0110           0
       317 MEMB     3        POPC     H4R      HAL2     0.900000E-01   1.00800           0
       318 MEMB     3        POPC     H4S      HAL2     0.900000E-01   1.00800           0
       319 MEMB     3        POPC     C25      CTL2    -0.180000       12.0110           0
       320 MEMB     3        POPC     H5R      HAL2     0.900000E-01   1.00800           0
       321 MEMB     3        POPC     H5S      HAL2     0.900000E-01   1.00800           0
       322 MEMB     3        POPC     C26      CTL2    -0.180000       12.0110           0
       323 MEMB     3        POPC     H6R      HAL2     0.900000E-01   1.00800           0
       324 MEMB     3        POPC     H6S      HAL2     0.900000E-01   1.00800           0
       325 MEMB     3        POPC     C27      CTL2    -0.180000       12.0110           0
       326 MEMB     3        POPC     H7R      HAL2     0.900000E-01   1.00800           0
       327 MEMB     3        POPC     H7S      HAL2     0.900000E-01   1.00800           0
       328 MEMB     3        POPC     C28      CTL2    -0.180000       12.0110           0
       329 MEMB     3        POPC     H8R      HAL2     0.900000E-01   1.00800           0
       330 MEMB     3        POPC     H8S      HAL2     0.900000E-01   1.00800           0
       331 MEMB     3        POPC     C29      CEL1    -0.150000       12.0110           0
       332 MEMB     3        POPC     H91      HEL1     0.150000       1.00800           0
       333 MEMB     3        POPC     C210     CEL1    -0.150000       12.0110           0
       334 MEMB     3        POPC     H101     HEL1     0.150000       1.00800           0
       335 MEMB     3        POPC     C211     CTL2    -0.180000       12.0110           0
       336 MEMB     3        POPC     H11R     HAL2     0.900000E-01   1.00800           0
       337 MEMB     3        POPC     H11S     HAL2     0.900000E-01   1.00800           0
       338 MEMB     3        POPC     C212     CTL2    -0.180000       12.0110           0
       339 MEMB     3        POPC     H12R     HAL2     0.900000E-01   1.00800           0
       340 MEMB     3        POPC     H12S     HAL2     0.900000E-01   1.00800           0
       341 MEMB     3        POPC     C213     CTL2    -0.180000       12.0110           0
       342 MEMB     3        POPC     H13R     HAL2     0.900000E-01   1.00800           0
       343 MEMB     3        POPC     H13S     HAL2     0.900000E-01   1.00800           0
       344 MEMB     3        POPC     C214     CTL2    -0.180000       12.0110           0
       345 MEMB     3        POPC     H14R     HAL2     0.900000E-01   1.00800           0
       346 MEMB     3        POPC     H14S     HAL2     0.900000E-01   1.00800           0
       347 MEMB     3        POPC     C215     CTL2    -0.180000       12.0110           0
       348 MEMB     3        POPC     H15R     HAL2     0.900000E-01   1.00800           0
       349 MEMB     3        POPC     H15S     HAL2     0.900000E-01   1.00800           0
       350 MEMB     3        POPC     C216     CTL2    -0.180000       12.0110           0
       351 MEMB     3        POPC     H16R     HAL2     0.900000E-01   1.00800           0
       352 MEMB     3        POPC     H16S     HAL2     0.900000E-01   1.00800           0
       353 MEMB     3        POPC     C217     CTL2    -0.180000       12.0110           0
       354 MEMB     3        POPC     H17R     HAL2     0.900000E-01   1.00800           0
       355 MEMB     3        POPC     H17S     HAL2     0.900000E-01   1.00800           0
       356 MEMB     3        POPC     C218     CTL3    -0.270000       12.0110           0
       357 MEMB     3        POPC     H18R     HAL3     0.900000E-01   1.00800           0
       358 MEMB     3        POPC     H18S     HAL3     0.900000E-01   1.00800           0
       359 MEMB     3        POPC     H18T     HAL3     0.900000E-01   1.00800           0
       360 MEMB     3        POPC     C33      CTL2    -0.180000       12.0110           0
       361 MEMB     3        POPC     H3X      HAL2     0.900000E-01   1.00800           0
       362 MEMB     3        POPC     H3Y      HAL2     0.900000E-01   1.00800           0
       363 MEMB     3        POPC     C34      CTL2    -0.180000       12.0110           0
       364 MEMB     3        POPC     H4X      HAL2     0.900000E-01   1.00800           0
       365 MEMB     3        POPC     H4Y      HAL2     0.900000E-01   1.00800           0
       366 MEMB     3        POPC     C35      CTL2    -0.180000       12.0110           0
       367 MEMB     3        POPC     H5X      HAL2     0.900000E-01   1.00800           0
       368 MEMB     3        POPC     H5Y      HAL2     0.900000E-01   1.00800           0
       369 MEMB     3        POPC     C36      CTL2    -0.180000       12.0110           0
       370 MEMB     3        POPC     H6X      HAL2     0.900000E-01   1.00800           0
       371 MEMB     3        POPC     H6Y      HAL2     0.900000E-01   1.00800           0
       372 MEMB     3        POPC     C37      CTL2    -0.180000       12.0110           0
       373 MEMB     3        POPC     H7X      HAL2     0.900000E-01   1.00800           0
       374 MEMB     3        POPC     H7Y      HAL2     0.900000E-01   1.00800           0
       375 MEMB     3        POPC     C38      CTL2    -0.180000       12.0110           0
       376 MEMB     3        POPC     H8X      HAL2     0.900000E-01   1.00800           0
       377 MEMB     3        POPC     H8Y      HAL2     0.900000E-01   1.00800           0
       378 MEMB     3        POPC     C39      CTL2    -0.180000       12.0110           0
       379 MEMB     3        POPC     H9X      HAL2     0.900000E-01   1.00800           0
       380 MEMB     3        POPC     H9Y      HAL2     0.900000E-01   1.00800           0
       381 MEMB     3        POPC     C310     CTL2    -0.180000       12.0110           0
       382 MEMB     3        POPC     H10X     HAL2     0.900000E-01   1.00800           0
       383 MEMB     3        POPC     H10Y     HAL2     0.900000E-01   1.00800           0
       384 MEMB     3        POPC     C311     CTL2    -0.180000       12.0110           0
       385 MEMB     3        POPC     H11X     HAL2     0.900000E-01   1.00800           0
       386 MEMB     3        POPC     H11Y     HAL2     0.900000E-01   1.00800           0
       387 MEMB     3        POPC     C312     CTL2    -0.180000       12.0110           0
       388 MEMB     3        POPC     H12X     HAL2     0.900000E-01   1.00800           0
       389 MEMB     3        POPC     H12Y     HAL2     0.900000E-01   1.00800           0
       390 MEMB     3        POPC     C313     CTL2    -0.180000       12.0110           0
       391 MEMB     3        POPC     H13X     HAL2     0.900000E-01   1.00800           0
       392 MEMB     3        POPC     H13Y     HAL2     0.900000E-01   1.00800           0
       393 MEMB     3        POPC     C314     CTL2    -0.180000       12.0110           0
       394 MEMB     3        POPC     H14X     HAL2     0.900000E-01   1.00800           0
       395 MEMB     3        POPC     H14Y     HAL2     0.900000E-01   1.00800           0
       396 MEMB     3        POPC     C315     CTL2    -0.180000       12.0110           0
       397 MEMB     3        POPC     H15X     HAL2     0.900000E-01   1.00800           0
       398 MEMB     3        POPC     H15Y     HAL2     0.900000E-01   1.00800           0
       399 MEMB     3        POPC     C316     CTL3    -0.270000       12.0110           0
       400 MEMB     3        POPC     H16X     HAL3     0.900000E-01   1.00800           0
       401 MEMB     3        POPC     H16Y     HAL3     0.900000E-01   1.00800           0
       402 MEMB     3        POPC     H16Z     HAL3     0.900000E-01   1.00800           0
       403 MEMB     4        POPC     N        NTL     -0.600000       14.0070           0
       404 MEMB     4        POPC     C12      CTL2    -0.100000       12.0110           0
       405 MEMB     4        POPC     H12A     HL       0.250000       1.00800           0
       406 MEMB     4        POPC     H12B     HL       0.250000       1.00800           0
       407 MEMB     4        POPC     C13      CTL5    -0.350000       12.0110           0
       408 MEMB     4        POPC     H13A     HL       0.250000       1.00800           0
       409 MEMB     4        POPC     H13B     HL       0.250000       1.00800           0
       410 MEMB     4        POPC     H13C     HL       0.250000       1.00800           0
       411 MEMB     4        POPC     C14      CTL5    -0.350000       12.0110           0
       412 MEMB     4        POPC     H14A     HL       0.250000       1.00800           0
       413 MEMB     4        POPC     H14B     HL       0.250000       1.00800           0
       414 MEMB     4        POPC     H14C     HL       0.250000       1.00800           0
       415 MEMB     4        POPC     C15      CTL5    -0.350000       12.0110           0
       416 MEMB     4        POPC     H15A     HL       0.250000       1.00800           0
       417 MEMB     4        POPC     H15B     HL       0.250000       1.00800           0
       418 MEMB     4        POPC     H15C     HL       0.250000       1.00800           0
       419 MEMB     4        POPC     C11      CTL2    -0.800000E-01   12.0110           0
       420 MEMB     4        POPC     H11A     HAL2     0.900000E-01   1.00800           0
       421 MEMB     4        POPC     H11B     HAL2     0.900000E-01   1.00800           0
       422 MEMB     4        POPC     P        PL        1.50000       30.9740           0
       423 MEMB     4        POPC     O13      O2L     -0.780000       15.9994           0
       424 MEMB     4        POPC     O14      O2L     -0.780000       15.9994           0
       425 MEMB     4        POPC     O12      OSLP    -0.570000       15.9994           0
       426 MEMB     4        POPC     O11      OSLP    -0.570000       15.9994           0
       427 MEMB     4        POPC     C1       CTL2    -0.800000E-01   12.0110           0
       428 MEMB     4        POPC     HA       HAL2     0.900000E-01   1.00800           0
       429 MEMB     4        POPC     HB       HAL2     0.900000E-01   1.00800           0
       430 MEMB     4        POPC     C2       CTL1     0.170000       12.0110           0
       431 MEMB     4        POPC     HS       HAL1     0.900000E-01   1.00800           0
       432 MEMB     4        POPC     O21      OSL     -0.490000       15.9994           0
       433 MEMB     4        POPC     C21      CL       0.900000       12.0110           0
       434 MEMB     4        POPC     O22      OBL     -0.630000       15.9994           0
       435 MEMB     4        POPC     C22      CTL2    -0.220000       12.0110           0
       436 MEMB     4        POPC     H2R      HAL2     0.900000E-01   1.00800           0
       437 MEMB     4        POPC     H2S      HAL2     0.900000E-01   1.00800           0
       438 MEMB     4        POPC     C3       CTL2     0.800000E-01   12.0110           0
       439 MEMB     4        POPC     HX       HAL2     0.900000E-01   1.00800           0
       440 MEMB     4        POPC     HY       HAL2     0.900000E-01   1.00800           0
       441 MEMB     4        POPC     O31      OSL     -0.490000       15.9994           0
       442 MEMB     4        POPC     C31      CL       0.900000       12.0110           0
       443 MEMB     4        POPC     O32      OBL     -0.630000       15.9994           0
       444 MEMB     4        POPC     C32      CTL2    -0.220000       12.0110           0
       445 MEMB     4        POPC     H2X      HAL2     0.900000E-01   1.00800           0
       446 MEMB     4        POPC     H2Y      HAL2     0.900000E-01   1.00800           0
       447 MEMB     4        POPC     C23      CTL2    -0.180000       12.0110           0
       448 MEMB     4        POPC     H3R      HAL2     0.900000E-01   1.00800           0
       449 MEMB     4        POPC     H3S      HAL2     0.900000E-01   1.00800           0
       450 MEMB     4        POPC     C24      CTL2    -0.180000       12.0110           0
       451 MEMB     4        POPC     H4R      HAL2     0.900000E-01   1.00800           0
       452 MEMB     4        POPC     H4S      HAL2     0.900000E-01   1.00800           0
       453 MEMB     4        POPC     C25      CTL2    -0.180000       12.0110           0
       454 MEMB     4        POPC     H5R      HAL2     0.900000E-01   1.00800           0
       455 MEMB     4        POPC     H5S      HAL2     0.900000E-01   1.00800           0
       456 MEMB     4        POPC     C26      CTL2    -0.180000       12.0110           0
       457 MEMB     4        POPC     H6R      HAL2     0.900000E-01   1.00800           0
       458 MEMB     4        POPC     H6S      HAL2     0.900000E-01   1.00800           0
       459 MEMB     4        POPC     C27      CTL2    -0.180000       12.0110           0
       460 MEMB     4        POPC     H7R      HAL2     0.900000E-01   1.00800           0
       461 MEMB     4        POPC     H7S      HAL2     0.900000E-01   1.00800           0
       462 MEMB     4        POPC     C28      CTL2    -0.180000       12.0110           0
       463 MEMB     4        POPC     H8R      HAL2     0.900000E-01   1.00800           0
       464 MEMB     4        POPC     H8S      HAL2     0.900000E-01   1.00800           0
       465 MEMB     4        POPC     C29      CEL1    -0.150000       12.0110           0
       466 MEMB     4        POPC     H91      HEL1     0.150000       1.00800           0
       467 MEMB     4        POPC     C210     CEL1    -0.150000       12.0110           0
       468 MEMB     4        POPC     H101     HEL1     0.150000       1.00800           0
       469 MEMB     4        POPC     C211     CTL2    -0.180000       12.0110           0
       470 MEMB     4        POPC     H11R     HAL2     0.900000E-01   1.00800           0
       471 MEMB     4        POPC     H11S     HAL2     0.900000E-01   1.00800           0
       472 MEMB     4        POPC     C212     CTL2    -0.180000       12.0110           0
       473 MEMB     4        POPC     H12R     HAL2     0.900000E-01   1.00800           0
       474 MEMB     4        POPC     H12S     HAL2     0.900000E-01   1.00800           0
       475 MEMB     4        POPC     C213     CTL2    -0.180000       12.0110           0
       476 MEMB     4        POPC     H13R     HAL2     0.900000E-01   1.00800           0
       477 MEMB     4        POPC     H13S     HAL2     0.900000E-01   1.00800           0
       478 MEMB     4        POPC     C214     CTL2    -0.180000       12.0110           0
       479 MEMB     4        POPC     H14R     HAL2     0.900000E-01   1.00800           0
       480 MEMB     4        POPC     H14S     HAL2     0.900000E-01   1.00800           0
       481 MEMB     4        POPC     C215     CTL2    -0.180000       12.0110           0
       482 MEMB     4        POPC     H15R     HAL2     0.900000E-01   1.00800           0
       483 MEMB     4        POPC     H15S     HAL2     0.900000E-01   1.00800           0
       484 MEMB     4        POPC     C216     CTL2    -0.180000       12.0110           0
       485 MEMB     4        POPC     H16R     HAL2     0.900000E-01   1.00800           0
       486 MEMB     4        POPC     H16S     HAL2     0.900000E-01   1.00800           0
       487 MEMB     4        POPC     C217     CTL2    -0.180000       12.0110           0
       488 MEMB     4        POPC     H17R     HAL2     0.900000E-01   1.00800           0
       489 MEMB     4        POPC     H17S     HAL2     0.900000E-01   1.00800           0
       490 MEMB     4        POPC     C218     CTL3    -0.270000       12.0110           0
       491 MEMB     4        POPC     H18R     HAL3     0.900000E-01   1.00800           0
       492 MEMB     4        POPC     H18S     HAL3     0.900000E-01   1.00800           0
       493 MEMB     4        POPC     H18T     HAL3     0.900000E-01   1.00800           0
       494 MEMB     4        POPC     C33      CTL2    -0.180000       12.0110           0
       495 MEMB     4        POPC     H3X      HAL2     0.900000E-01   1.00800           0
       496 MEMB     4        POPC     H3Y      HAL2     0.900000E-01   1.00800           0
       497 MEMB     4        POPC     C34      CTL2    -0.180000       12.0110           0
       498 MEMB     4        POPC     H4X      HAL2     0.900000E-01   1.00800           0
       499 MEMB     4        POPC     H4Y      HAL2     0.900000E-01   1.00800           0
       500 MEMB     4        POPC     C35      CTL2    -0.180000       12.0110           0
       501 MEMB     4        POPC     H5X      HAL2     0.900000E-01   1.00800           0
       502 MEMB     4        POPC     H5Y      HAL2     0.900000E-01   1.00800           0
       503 MEMB     4        POPC     C36      CTL2    -0.180000       12.0110           0
       504 MEMB     4        POPC     H6X      HAL2     0.900000E-01   1.00800           0
       505 MEMB     4        POPC     H6Y      HAL2     0.900000E-01   1.00800           0
       506 MEMB     4        POPC     C37      CTL2    -0.180000       12.0110           0
       507 MEMB     4        POPC     H7X      HAL2     0.900000E-01   1.00800           0
       508 MEMB     4        POPC     H7Y      HAL2     0.900000E-01   1.00800           0
       509 MEMB     4        POPC     C38      CTL2    -0.180000       12.0110           0
       510 MEMB     4        POPC     H8X      HAL2     0.900000E-01   1.00800           0
       511 MEMB     4        POPC     H8Y      HAL2     0.900000E-01   1.00800           0
       512 MEMB     4        POPC     C39      CTL2    -0.180000       12.0110           0
       513 MEMB     4        POPC     H9X      HAL2     0.900000E-01   1.00800           0
       514 MEMB     4        POPC     H9Y      HAL2     0.900000E-01   1.00800           0
       515 MEMB     4        POPC     C310     CTL2    -0.180000       12.0110           0
       516 MEMB     4        POPC     H10X     HAL2     0.900000E-01   1.00800           0
       517 MEMB     4        POPC     H10Y     HAL2     0.900000E-01   1.00800           0
       518 MEMB     4        POPC     C311     CTL2    -0.180000       12.0110           0
       519 MEMB     4        POPC     H11X     HAL2     0.900000E-01   1.00800           0
       520 MEMB     4        POPC     H11Y     HAL2     0.900000E-01   1.00800           0
       521 MEMB     4        POPC     C312     CTL2    -0.180000       12.0110           0
       522 MEMB     4        POPC     H12X     HAL2     0.900000E-01   1.00800           0
       523 MEMB     4        POPC     H12Y     HAL2     0.900000E-01   1.00800           0
       524 MEMB     4        POPC     C313     CTL2    -0.180000       12.0110           0
       525 MEMB     4        POPC     H13X     HAL2     0.900000E-01   1.00800           0
       526 MEMB     4        POPC     H13Y     HAL2     0.900000E-01   1.00800           0
       527 MEMB     4        POPC     C314     CTL2    -0.180000       12.0110           0
       528 MEMB     4        POPC     H14X     HAL2     0.900000E-01   1.00800           0
       529 MEMB     4        POPC     H14Y     HAL2     0.900000E-01   1.00800           0
       530 MEMB     4        POPC     C315     CTL2    -0.180000       12.0110           0
       531 MEMB     4        POPC     H15X     HAL2     0.900000E-01   1.00800           0
       532 MEMB     4        POPC     H15Y     HAL2     0.900000E-01   1.00800           0
       533 MEMB     4        POPC     C316     CTL3    -0.270000       12.0110           0
       534 MEMB     4        POPC     H16X     HAL3     0.900000E-01   1.00800           0
       535 MEMB     4        POPC     H16Y     HAL3     0.900000E-01   1.00800           0
       536 MEMB     4        POPC     H16Z     HAL3     0.900000E-01   1.00800           0
       537 MEMB     5        POPC     N        NTL     -0.600000       14.0070           0
       538 MEMB     5        POPC     C12      CTL2    -0.100000       12.0110           0
       539 MEMB     5        POPC     H12A     HL       0.250000       1.00800           0
       540 MEMB     5        POPC     H12B     HL       0.250000       1.00800           0
       541 MEMB     5        POPC     C13      CTL5    -0.350000       12.0110           0
       542 MEMB     5        POPC     H13A     HL       0.250000       1.00800           0
       543 MEMB     5        POPC     H13B     HL       0.250000       1.00800           0
       544 MEMB     5        POPC     H13C     HL       0.250000       1.00800           0
       545 MEMB     5        POPC     C14      CTL5    -0.350000       12.0110           0
       546 MEMB     5        POPC     H14A     HL       0.250000       1.00800           0
       547 MEMB     5        POPC     H14B     HL       0.250000       1.00800           0
       548 MEMB     5        POPC     H14C     HL       0.250000       1.00800           0
       549 MEMB     5        POPC     C15      CTL5    -0.350000       12.0110           0
       550 MEMB     5        POPC     H15A     HL       0.250000       1.00800           0
       551 MEMB     5        POPC     H15B     HL       0.250000       1.00800           0
       552 MEMB     5        POPC     H15C     HL       0.250000       1.00800           0
       553 MEMB     5        POPC     C11      CTL2    -0.800000E-01   12.0110           0
       554 MEMB     5        POPC     H11A     HAL2     0.900000E-01   1.00800           0
       555 MEMB     5        POPC     H11B     HAL2     0.900000E-01   1.00800           0
       556 MEMB     5        POPC     P        PL        1.50000       30.9740           0
       557 MEMB     5        POPC     O13      O2L     -0.780000       15.9994           0
       558 MEMB     5        POPC     O14      O2L     -0.780000       15.9994           0
       559 MEMB     5        POPC     O12      OSLP    -0.570000       15.9994           0
       560 MEMB     5        POPC     O11      OSLP    -0.570000       15.9994           0
       561 MEMB     5        POPC     C1       CTL2    -0.800000E-01   12.0110           0
       562 MEMB     5        POPC     HA       HAL2     0.900000E-01   1.00800           0
       563 MEMB     5        POPC     HB       HAL2     0.900000E-01   1.00800           0
       564 MEMB     5        POPC     C2       CTL1     0.170000       12.0110           0
       565 MEMB     5        POPC     HS       HAL1     0.900000E-01   1.00800           0
       566 MEMB     5        POPC     O21      OSL     -0.490000       15.9994           0
       567 MEMB     5        POPC     C21      CL       0.900000       12.0110           0
       568 MEMB     5        POPC     O22      OBL     -0.630000       15.9994           0
       569 MEMB     5        POPC     C22      CTL2    -0.220000       12.0110           0
       570 MEMB     5        POPC     H2R      HAL2     0.900000E-01   1.00800           0
       571 MEMB     5        POPC     H2S      HAL2     0.900000E-01   1.00800           0
       572 MEMB     5        POPC     C3       CTL2     0.800000E-01   12.0110           0
       573 MEMB     5        POPC     HX       HAL2     0.900000E-01   1.00800           0
       574 MEMB     5        POPC     HY       HAL2     0.900000E-01   1.00800           0
       575 MEMB     5        POPC     O31      OSL     -0.490000       15.9994           0
       576 MEMB     5        POPC     C31      CL       0.900000       12.0110           0
       577 MEMB     5        POPC     O32      OBL     -0.630000       15.9994           0
       578 MEMB     5        POPC     C32      CTL2    -0.220000       12.0110           0
       579 MEMB     5        POPC     H2X      HAL2     0.900000E-01   1.00800           0
       580 MEMB     5        POPC     H2Y      HAL2     0.900000E-01   1.00800           0
       581 MEMB     5        POPC     C23      CTL2    -0.180000       12.0110           0
       582 MEMB     5        POPC     H3R      HAL2     0.900000E-01   1.00800           0
       583 MEMB     5        POPC     H3S      HAL2     0.900000E-01   1.00800           0
       584 MEMB     5        POPC     C24      CTL2    -0.180000       12.0110           0
       585 MEMB     5        POPC     H4R      HAL2     0.900000E-01   1.00800           0
       586 MEMB     5        POPC     H4S      HAL2     0.900000E-01   1.00800           0
       587 MEMB     5        POPC     C25      CTL2    -0.180000       12.0110           0
       588 MEMB     5        POPC     H5R      HAL2     0.900000E-01   1.00800           0
       589 MEMB     5        POPC     H5S      HAL2     0.900000E-01   1.00800           0
       590 MEMB     5        POPC     C26      CTL2    -0.180000       12.0110           0
       591 MEMB     5        POPC     H6R      HAL2     0.900000E-01   1.00800           0
       592 MEMB     5        POPC     H6S      HAL2     0.900000E-01   1.00800           0
       593 MEMB     5        POPC     C27      CTL2    -0.180000       12.0110           0
       594 MEMB     5        POPC     H7R      HAL2     0.900000E-01   1.00800           0
       595 MEMB     5        POPC     H7S      HAL2     0.900000E-01   1.00800           0
       596 MEMB     5        POPC     C28      CTL2    -0.180000       12.0110           0
       597 MEMB     5        POPC     H8R      HAL2     0.900000E-01   1.00800           0
       598 MEMB     5        POPC     H8S      HAL2     0.900000E-01   1.00800           0
       599 MEMB     5        POPC     C29      CEL1    -0.150000       12.0110           0
       600 MEMB     5        POPC     H91      HEL1     0.150000       1.00800           0
       601 MEMB     5        POPC     C210     CEL1    -0.150000       12.0110           0
       602 MEMB     5        POPC     H101     HEL1     0.150000       1.00800           0
       603 MEMB     5        POPC     C211     CTL2    -0.180000       12.0110           0
       604 MEMB     5        POPC     H11R     HAL2     0.900000E-01   1.00800           0
       605 MEMB     5        POPC     H11S     HAL2     0.900000E-01   1.00800           0
       606 MEMB     5        POPC     C212     CTL2    -0.180000       12.0110           0
       607 MEMB     5        POPC     H12R     HAL2     0.900000E-01   1.00800           0
       608 MEMB     5        POPC     H12S     HAL2     0.900000E-01   1.00800           0
       609 MEMB     5        POPC     C213     CTL2    -0.180000       12.0110           0
       610 MEMB     5        POPC     H13R     HAL2     0.900000E-01   1.00800           0
       611 MEMB     5        POPC     H13S     HAL2     0.900000E-01   1.00800           0
       612 MEMB     5        POPC     C214     CTL2    -0.180000       12.0110           0
       613 MEMB     5        POPC     H14R     HAL2     0.900000E-01   1.00800           0
       614 MEMB     5        POPC     H14S     HAL2     0.900000E-01   1.00800           0
       615 MEMB     5        POPC     C215     CTL2    -0.180000       12.0110           0
       616 MEMB     5        POPC     H15R     HAL2     0.900000E-01   1.00800           0
       617 MEMB     5        POPC     H15S     HAL2     0.900000E-01   1.00800           0
       618 MEMB     5        POPC     C216     CTL2    -0.180000       12.0110           0
       619 MEMB     5        POPC     H16R     HAL2     0.900000E-01   1.00800           0
       620 MEMB     5        POPC     H16S     HAL2     0.900000E-01   1.00800           0
       621 MEMB     5        POPC     C217     CTL2    -0.180000       12.0110           0
       622 MEMB     5        POPC     H17R     HAL2     0.900000E-01   1.00800           0
       623 MEMB     5        POPC     H17S     HAL2     0.900000E-01   1.00800           0
       624 MEMB     5        POPC     C218     CTL3    -0.270000       12.0110           0
       625 MEMB     5        POPC     H18R     HAL3     0.900000E-01   1.00800           0
       626 MEMB     5        POPC     H18S     HAL3     0.900000E-01   1.00800           0
       627 MEMB     5        POPC     H18T     HAL3     0.900000E-01   1.00800           0
       628 MEMB     5        POPC     C33      CTL2    -0.180000       12.0110           0
       629 MEMB     5        POPC     H3X      HAL2     0.900000E-01   1.00800           0
       630 MEMB     5        POPC     H3Y      HAL2     0.900000E-01   1.00800           0
       631 MEMB     5        POPC     C34      CTL2    -0.180000       12.0110           0
       632 MEMB     5        POPC     H4X      HAL2     0.900000E-01   1.00800           0
       633 MEMB     5        POPC     H4Y      HAL2     0.900000E-01   1.00800           0
       634 MEMB     5        POPC     C35      CTL2    -0.180000       12.0110           0
       635 MEMB     5        POPC     H5X      HAL2     0.900000E-01   1.00800           0
       636 MEMB     5        POPC     H5Y      HAL2     0.900000E-01   1.00800           0
       637 MEMB     5        POPC     C36      CTL2    -0.180000       12.0110           0
       638 MEMB     5        POPC     H6X      HAL2     0.900000E-01   1.00800           0
       639 MEMB     5        POPC     H6Y      HAL2     0.900000E-01   1.00800           0
       640 MEMB     5        POPC     C37      CTL2    -0.180000       12.0110           0
       641 MEMB     5        POPC     H7X      HAL2     0.900000E-01   1.00800           0
       642 MEMB     5        POPC     H7Y      HAL2     0.900000E-01   1.00800           0
       643 MEMB     5        POPC     C38      CTL2    -0.180000       12.0110           0
       644 MEMB     5        POPC     H8X      HAL2     0.900000E-01   1.00800           0
       645 MEMB     5        POPC     H8Y      HAL2     0.900000E-01   1.00800           0
       646 MEMB     5        POPC     C39      CTL2    -0.180000       12.0110           0
       647 MEMB     5        POPC     H9X      HAL2     0.900000E-01   1.00800           0
       648 MEMB     5        POPC     H9Y      HAL2     0.900000E-01   1.00800           0
       649 MEMB     5        POPC     C310     CTL2    -0.180000       12.0110           0
       650 MEMB     5        POPC     H10X     HAL2     0.900000E-01   1.00800           0
       651 MEMB     5        POPC     H10Y     HAL2     0.900000E-01   1.00800           0
       652 MEMB     5        POPC     C311     CTL2    -0.180000       12.0110           0
       653 MEMB     5        POPC     H11X     HAL2     0.900000E-01   1.00800           0
       654 MEMB     5        POPC     H11Y     HAL2     0.900000E-01   1.00800           0
       655 MEMB     5        POPC     C312     CTL2    -0.180000       12.0110           0
       656 MEMB     5        POPC     H12X     HAL2     0.900000E-01   1.00800           0
       657 MEMB     5        POPC     H12Y     HAL2     0.900000E-01   1.00800           0
       658 MEMB     5        POPC     C313     CTL2    -0.180000       12.0110           0
       659 MEMB     5        POPC     H13X     HAL2     0.900000E-01   1.00800           0
       660 MEMB     5        POPC     H13Y     HAL2     0.900000E-01   1.00800           0
       661 MEMB     5        POPC     C314     CTL2    -0.180000       12.0110           0
       662 MEMB     5        POPC     H14X     HAL2     0.900000E-01   1.00800           0
       663 MEMB     5        POPC     H14Y     HAL2     0.900000E-01   1.00800           0
       664 MEMB     5        POPC     C315     CTL2    -0.180000       12.0110           0
       665 MEMB     5        POPC     H15X     HAL2     0.900000E-01   1.00800           0
       666 MEMB     5        POPC     H15Y     HAL2     0.900000E-01   1.00800           0
       667 MEMB     5        POPC     C316     CTL3    -0.270000       12.0110           0
       668 MEMB     5        POPC     H16X     HAL3     0.900000E-01   1.00800           0
       669 MEMB     5        POPC     H16Y     HAL3     0.900000E-01   1.00800           0
       670 MEMB     5        POPC     H16Z     HAL3     0.900000E-01   1.00800           0
       671 MEMB     6        POPC     N        NTL     -0.600000       14.0070           0
       672 MEMB     6        POPC     C12      CTL2    -0.100000       12.0110           0
       673 MEMB     6        POPC     H12A     HL       0.250000       1.00800           0
       674 MEMB     6        POPC     H12B     HL       0.250000       1.00800           0
       675 MEMB     6        POPC     C13      CTL5    -0.350000       12.0110           0
       676 MEMB     6        POPC     H13A     HL       0.250000       1.00800           0
       677 MEMB     6        POPC     H13B     HL       0.250000       1.00800           0
       678 MEMB     6        POPC     H13C     HL       0.250000       1.00800           0
       679 MEMB     6        POPC     C14      CTL5    -0.350000       12.0110           0
       680 MEMB     6        POPC     H14A     HL       0.250000       1.00800           0
       681 MEMB     6        POPC     H14B     HL       0.250000       1.00800           0
       682 MEMB     6        POPC     H14C     HL       0.250000       1.00800           0
       683 MEMB     6        POPC     C15      CTL5    -0.350000       12.0110           0
       684 MEMB     6        POPC     H15A     HL       0.250000       1.00800           0
       685 MEMB     6        POPC     H15B     HL       0.250000       1.00800           0
       686 MEMB     6        POPC     H15C     HL       0.250000       1.00800           0
       687 MEMB     6        POPC     C11      CTL2    -0.800000E-01   12.0110           0
       688 MEMB     6        POPC     H11A     HAL2     0.900000E-01   1.00800           0
       689 MEMB     6        POPC     H11B     HAL2     0.900000E-01   1.00800           0
       690 MEMB     6        POPC     P        PL        1.50000       30.9740           0
       691 MEMB     6        POPC     O13      O2L     -0.780000       15.9994           0
       692 MEMB     6        POPC     O14      O2L     -0.780000       15.9994           0
       693 MEMB     6        POPC     O12      OSLP    -0.570000       15.9994           0
       694 MEMB     6        POPC     O11      OSLP    -0.570000       15.9994           0
       695 MEMB     6        POPC     C1       CTL2    -0.800000E-01   12.0110           0
       696 MEMB     6        POPC     HA       HAL2     0.900000E-01   1.00800           0
       697 MEMB     6        POPC     HB       HAL2     0.900000E-01   1.00800           0
       698 MEMB     6        POPC     C2       CTL1     0.170000       12.0110           0
       699 MEMB     6        POPC     HS       HAL1     0.900000E-01   1.00800           0
       700 MEMB     6        POPC     O21      OSL     -0.490000       15.9994           0
       701 MEMB     6        POPC     C21      CL       0.900000       12.0110           0
       702 MEMB     6        POPC     O22      OBL     -0.630000       15.9994           0
       703 MEMB     6        POPC     C22      CTL2    -0.220000       12.0110           0
       704 MEMB     6        POPC     H2R      HAL2     0.900000E-01   1.00800           0
       705 MEMB     6        POPC     H2S      HAL2     0.900000E-01   1.00800           0
       706 MEMB     6        POPC     C3       CTL2     0.800000E-01   12.0110           0
       707 MEMB     6        POPC     HX       HAL2     0.900000E-01   1.00800           0
       708 MEMB     6        POPC     HY       HAL2     0.900000E-01   1.00800           0
       709 MEMB     6        POPC     O31      OSL     -0.490000       15.9994           0
       710 MEMB     6        POPC     C31      CL       0.900000       12.0110           0
       711 MEMB     6        POPC     O32      OBL     -0.630000       15.9994           0
       712 MEMB     6        POPC     C32      CTL2    -0.220000       12.0110           0
       713 MEMB     6        POPC     H2X      HAL2     0.900000E-01   1.00800           0
       714 MEMB     6        POPC     H2Y      HAL2     0.900000E-01   1.00800           0
       715 MEMB     6        POPC     C23      CTL2    -0.180000       12.0110           0
       716 MEMB     6        POPC     H3R      HAL2     0.900000E-01   1.00800           0
       717 MEMB     6        POPC     H3S      HAL2     0.900000E-01   1.00800           0
       718 MEMB     6        POPC     C24      CTL2    -0.180000       12.0110           0
       719 MEMB     6        POPC     H4R      HAL2     0.900000E-01   1.00800           0
       720 MEMB     6        POPC     H4S      HAL2     0.900000E-01   1.00800           0
       721 MEMB     6        POPC     C25      CTL2    -0.180000       12.0110           0
       722 MEMB     6        POPC     H5R      HAL2     0.900000E-01   1.00800           0
       723 MEMB     6        POPC     H5S      HAL2     0.900000E-01   1.00800           0
       724 MEMB     6        POPC     C26      CTL2    -0.180000       12.0110           0
       725 MEMB     6        POPC     H6R      HAL2     0.900000E-01   1.00800           0
       726 MEMB     6        POPC     H6S      HAL2     0.900000E-01   1.00800           0
       727 MEMB     6        POPC     C27      CTL2    -0.180000       12.0110           0
       728 MEMB     6        POPC     H7R      HAL2     0.900000E-01   1.00800           0
       729 MEMB     6        POPC     H7S      HAL2     0.900000E-01   1.00800           0
       730 MEMB     6        POPC     C28      CTL2    -0.180000       12.0110           0
       731 MEMB     6        POPC     H8R      HAL2     0.900000E-01   1.00800           0
       732 MEMB     6        POPC     H8S      HAL2     0.900000E-01   1.00800           0
       733 MEMB     6        POPC     C29      CEL1    -0.150000       12.0110           0
       734 MEMB     6        POPC     H91      HEL1     0.150000       1.00800           0
       735 MEMB     6        POPC     C210     CEL1    -0.150000       12.0110           0
       736 MEMB     6        POPC     H101     HEL1     0.150000       1.00800           0
       737 MEMB     6        POPC     C211     CTL2    -0.180000       12.0110           0
       738 MEMB     6        POPC     H11R     HAL2     0.900000E-01   1.00800           0
       739 MEMB     6        POPC     H11S     HAL2     0.900000E-01   1.00800           0
       740 MEMB     6        POPC     C212     CTL2    -0.180000       12.0110           0
       741 MEMB     6        POPC     H12R     HAL2     0.900000E-01   1.00800           0
       742 MEMB     6        POPC     H12S     HAL2     0.900000E-01   1.00800           0
       743 MEMB     6        POPC     C213     CTL2    -0.180000       12.0110           0
       744 MEMB     6        POPC     H13R     HAL2     0.900000E-01   1.00800           0
       745 MEMB     6        POPC     H13S     HAL2     0.900000E-01   1.00800           0
       746 MEMB     6        POPC     C214     CTL2    -0.180000       12.0110           0
       747 MEMB     6        POPC     H14R     HAL2     0.900000E-01   1.00800           0
       748 MEMB     6        POPC     H14S     HAL2     0.900000E-01   1.00800           0
       749 MEMB     6        POPC     C215     CTL2    -0.180000       12.0110           0
       750 MEMB     6        POPC     H15R     HAL2     0.900000E-01   1.00800           0
       751 MEMB     6        POPC     H15S     HAL2     0.900000E-01   1.00800           0
       752 MEMB     6        POPC     C216     CTL2    -0.180000       12.0110           0
       753 MEMB     6        POPC     H16R     HAL2     0.900000E-01   1.00800           0
       754 MEMB     6        POPC     H16S     HAL2     0.900000E-01   1.00800           0
       755 MEMB     6        POPC     C217     CTL2    -0.180000       12.0110           0
       756 MEMB     6        POPC     H17R     HAL2     0.900000E-01   1.00800           0
       757 MEMB     6        POPC     H17S     HAL2     0.900000E-01   1.00800           0
       758 MEMB     6        POPC     C218     CTL3    -0.270000       12.0110           0
       759 MEMB     6        POPC     H18R     HAL3     0.900000E-01   1.00800           0
       760 MEMB     6        POPC     H18S     HAL3     0.900000E-01   1.00800           0
       761 MEMB     6        POPC     H18T     HAL3     0.900000E-01   1.00800           0
       762 MEMB     6        POPC     C33      CTL2    -0.180000       12.0110           0
       763 MEMB     6        POPC     H3X      HAL2     0.900000E-01   1.00800           0
       764 MEMB     6        POPC     H3Y      HAL2     0.900000E-01   1.00800           0
       765 MEMB     6        POPC     C34      CTL2    -0.180000       12.0110           0
       766 MEMB     6        POPC     H4X      HAL2     0.900000E-01   1.00800           0
       767 MEMB     6        POPC     H4Y      HAL2     0.900000E-01   1.00800           0
       768 MEMB     6        POPC     C35      CTL2    -0.180000       12.0110           0
       769 MEMB     6        POPC     H5X      HAL2     0.900000E-01   1.00800           0
       770 MEMB     6        POPC     H5Y      HAL2     0.900000E-01   1.00800           0
       771 MEMB     6        POPC     C36      CTL2    -0.180000       12.0110           0
       772 MEMB     6        POPC     H6X      HAL2     0.900000E-01   1.00800           0
       773 MEMB     6        POPC     H6Y      HAL2     0.900000E-01   1.00800           0
       774 MEMB     6        POPC     C37      CTL2    -0.180000       12.0110           0
       775 MEMB     6        POPC     H7X      HAL2     0.900000E-01   1.00800           0
       776 MEMB     6        POPC     H7Y      HAL2     0.900000E-01   1.00800           0
       777 MEMB     6        POPC     C38      CTL2    -0.180000       12.0110           0
       778 MEMB     6        POPC     H8X      HAL2     0.900000E-01   1.00800           0
       779 MEMB     6        POPC     H8Y      HAL2     0.900000E-01   1.00800           0
       780 MEMB     6        POPC     C39      CTL2    -0.180000       12.0110           0
       781 MEMB     6        POPC     H9X      HAL2     0.900000E-01   1.00800           0
       782 MEMB     6        POPC     H9Y      HAL2     0.900000E-01   1.00800           0
       783 MEMB     6        POPC     C310     CTL2    -0.180000       12.0110           0
       784 MEMB     6        POPC     H10X     HAL2     0.900000E-01   1.00800           0
       785 MEMB     6        POPC     H10Y     HAL2     0.900000E-01   1.00800           0
       786 MEMB     6        POPC     C311     CTL2    -0.180000       12.0110           0
       787 MEMB     6        POPC     H11X     HAL2     0.900000E-01   1.00800           0
       788 MEMB     6        POPC     H11Y     HAL2     0.900000E-01   1.00800           0
       789 MEMB     6        POPC     C312     CTL2    -0.180000       12.0110           0
       790 MEMB     6        POPC     H12X     HAL2     0.900000E-01   1.00800           0
       791 MEMB     6        POPC     H12Y     HAL2     0.900000E-01   1.00800           0
       792 MEMB     6        POPC     C313     CTL2    -0.180000       12.0110           0
       793 MEMB     6        POPC     H13X     HAL2     0.900000E-01   1.00800           0
       794 MEMB     6        POPC     H13Y     HAL2     0.900000E-01   1.00800           0
       795 MEMB     6        POPC     C314     CTL2    -0.180000       12.0110           0
       796 MEMB     6        POPC     H14X     HAL2     0.900000E-01   1.00800           0
       797 MEMB     6        POPC     H14Y     HAL2     0.900000E-01   1.00800           0
       798 MEMB     6        POPC     C315     CTL2    -0.180000       12.0110           0
       799 MEMB     6        POPC     H15X     HAL2     0.900000E-01   1.00800           0
       800 MEMB     6        POPC     H15Y     HAL2     0.900000E-01   1.00800           0
       801 MEMB     6        POPC     C316     CTL3    -0.270000       12.0110           0
       802 MEMB     6        POPC     H16X     HAL3     0.900000E-01   1.00800           0
       803 MEMB     6        POPC     H16Y     HAL3     0.900000E-01   1.00800           0
       804 MEMB     6        POPC     H16Z     HAL3     0.900000E-01   1.00800           0
       805 MEMB     7        POPC     N        NTL     -0.600000       14.0070           0
       806 MEMB     7        POPC     C12      CTL2    -0.100000       12.0110           0
       807 MEMB     7        POPC     H12A     HL       0.250000       1.00800           0
       808 MEMB     7        POPC     H12B     HL       0.250000       1.00800           0
       809 MEMB     7        POPC     C13      CTL5    -0.350000       12.0110           0
       810 MEMB     7        POPC     H13A     HL       0.250000       1.00800           0
       811 MEMB     7        POPC     H13B     HL       0.250000       1.00800           0
       812 MEMB     7        POPC     H13C     HL       0.250000       1.00800           0
       813 MEMB     7        POPC     C14      CTL5    -0.350000       12.0110           0
       814 MEMB     7        POPC     H14A     HL       0.250000       1.00800           0
       815 MEMB     7        POPC     H14B     HL       0.250000       1.00800           0
       816 MEMB     7        POPC     H14C     HL       0.250000       1.00800           0
       817 MEMB     7        POPC     C15      CTL5    -0.350000       12.0110           0
       818 MEMB     7        POPC     H15A     HL       0.250000       1.00800           0
       819 MEMB     7        POPC     H15B     HL       0.250000       1.00800           0
       820 MEMB     7        POPC     H15C     HL       0.250000       1.00800           0
       821 MEMB     7        POPC     C11      CTL2    -0.800000E-01   12.0110           0
       822 MEMB     7        POPC     H11A     HAL2     0.900000E-01   1.00800           0
       823 MEMB     7        POPC     H11B     HAL2     0.900000E-01   1.00800           0
       824 MEMB     7        POPC     P        PL        1.50000       30.9740           0
       825 MEMB     7        POPC     O13      O2L     -0.780000       15.9994           0
       826 MEMB     7        POPC     O14      O2L     -0.780000       15.9994           0
       827 MEMB     7        POPC     O12      OSLP    -0.570000       15.9994           0
       828 MEMB     7        POPC     O11      OSLP    -0.570000       15.9994           0
       829 MEMB     7        POPC     C1       CTL2    -0.800000E-01   12.0110           0
       830 MEMB     7        POPC     HA       HAL2     0.900000E-01   1.00800           0
       831 MEMB     7        POPC     HB       HAL2     0.900000E-01   1.00800           0
       832 MEMB     7        POPC     C2       CTL1     0.170000       12.0110           0
       833 MEMB     7        POPC     HS       HAL1     0.900000E-01   1.00800           0
       834 MEMB     7        POPC     O21      OSL     -0.490000       15.9994           0
       835 MEMB     7        POPC     C21      CL       0.900000       12.0110           0
       836 MEMB     7        POPC     O22      OBL     -0.630000       15.9994           0
       837 MEMB     7        POPC     C22      CTL2    -0.220000       12.0110           0
       838 MEMB     7        POPC     H2R      HAL2     0.900000E-01   1.00800           0
       839 MEMB     7        POPC     H2S      HAL2     0.900000E-01   1.00800           0
       840 MEMB     7        POPC     C3       CTL2     0.800000E-01   12.0110           0
       841 MEMB     7        POPC     HX       HAL2     0.900000E-01   1.00800           0
       842 MEMB     7        POPC     HY       HAL2     0.900000E-01   1.00800           0
       843 MEMB     7        POPC     O31      OSL     -0.490000       15.9994           0
       844 MEMB     7        POPC     C31      CL       0.900000       12.0110           0
       845 MEMB     7        POPC     O32      OBL     -0.630000       15.9994           0
       846 MEMB     7        POPC     C32      CTL2    -0.220000       12.0110           0
       847 MEMB     7        POPC     H2X      HAL2     0.900000E-01   1.00800           0
       848 MEMB     7        POPC     H2Y      HAL2     0.900000E-01   1.00800           0
       849 MEMB     7        POPC     C23      CTL2    -0.180000       12.0110           0
       850 MEMB     7        POPC     H3R      HAL2     0.900000E-01   1.00800           0
       851 MEMB     7        POPC     H3S      HAL2     0.900000E-01   1.00800           0
       852 MEMB     7        POPC     C24      CTL2    -0.180000       12.0110           0
       853 MEMB     7        POPC     H4R      HAL2     0.900000E-01   1.00800           0
       854 MEMB     7        POPC     H4S      HAL2     0.900000E-01   1.00800           0
       855 MEMB     7        POPC     C25      CTL2    -0.180000       12.0110           0
       856 MEMB     7        POPC     H5R      HAL2     0.900000E-01   1.00800           0
       857 MEMB     7        POPC     H5S      HAL2     0.900000E-01   1.00800           0
       858 MEMB     7        POPC     C26      CTL2    -0.180000       12.0110           0
       859 MEMB     7        POPC     H6R      HAL2     0.900000E-01   1.00800           0
       860 MEMB     7        POPC     H6S      HAL2     0.900000E-01   1.00800           0
       861 MEMB     7        POPC     C27      CTL2    -0.180000       12.0110           0
       862 MEMB     7        POPC     H7R      HAL2     0.900000E-01   1.00800           0
       863 MEMB     7        POPC     H7S      HAL2     0.900000E-01   1.00800           0
       864 MEMB     7        POPC     C28      CTL2    -0.180000       12.0110           0
       865 MEMB     7        POPC     H8R      HAL2     0.900000E-01   1.00800           0
       866 MEMB     7        POPC     H8S      HAL2     0.900000E-01   1.00800           0
       867 MEMB     7        POPC     C29      CEL1    -0.150000       12.0110           0
       868 MEMB     7        POPC     H91      HEL1     0.150000       1.00800           0
       869 MEMB     7        POPC     C210     CEL1    -0.150000       12.0110           0
       870 MEMB     7        POPC     H101     HEL1     0.150000       1.00800           0
       871 MEMB     7        POPC     C211     CTL2    -0.180000       12.0110           0
       872 MEMB     7        POPC     H11R     HAL2     0.900000E-01   1.00800           0
       873 MEMB     7        POPC     H11S     HAL2     0.900000E-01   1.00800           0
       874 MEMB     7        POPC     C212     CTL2    -0.180000       12.0110           0
       875 MEMB     7        POPC     H12R     HAL2     0.900000E-01   1.00800           0
       876 MEMB     7        POPC     H12S     HAL2     0.900000E-01   1.00800           0
       877 MEMB     7        POPC     C213     CTL2    -0.180000       12.0110           0
       878 MEMB     7        POPC     H13R     HAL2     0.900000E-01   1.00800           0
       879 MEMB     7        POPC     H13S     HAL2     0.900000E-01   1.00800           0
       880 MEMB     7        POPC     C214     CTL2    -0.180000       12.0110           0
       881 MEMB     7        POPC     H14R     HAL2     0.900000E-01   1.00800           0
       882 MEMB     7        POPC     H14S     HAL2     0.900000E-01   1.00800           0
       883 MEMB     7        POPC     C215     CTL2    -0.180000       12.0110           0
       884 MEMB     7        POPC     H15R     HAL2     0.900000E-01   1.00800           0
       885 MEMB     7        POPC     H15S     HAL2     0.900000E-01   1.00800           0
       886 MEMB     7        POPC     C216     CTL2    -0.180000       12.0110           0
       887 MEMB     7        POPC     H16R     HAL2     0.900000E-01   1.00800           0
       888 MEMB     7        POPC     H16S     HAL2     0.900000E-01   1.00800           0
       889 MEMB     7        POPC     C217     CTL2    -0.180000       12.0110           0
       890 MEMB     7        POPC     H17R     HAL2     0.900000E-01   1.00800           0
       891 MEMB     7        POPC     H17S     HAL2     0.900000E-01   1.00800           0
       892 MEMB     7        POPC     C218     CTL3    -0.270000       12.0110           0
       893 MEMB     7        POPC     H18R     HAL3     0.900000E-01   1.00800           0
       894 MEMB     7        POPC     H18S     HAL3     0.900000E-01   1.00800           0
       895 MEMB     7        POPC     H18T     HAL3     0.900000E-01   1.00800           0
       896 MEMB     7        POPC     C33      CTL2    -0.180000       12.0110           0
       897 MEMB     7        POPC     H3X      HAL2     0.900000E-01   1.00800           0
       898 MEMB     7        POPC     H3Y      HAL2     0.900000E-01   1.00800           0
       899 MEMB     7        POPC     C34      CTL2    -0.180000       12.0110           0
       900 MEMB     7        POPC     H4X      HAL2     0.900000E-01   1.00800           0
       901 MEMB     7        POPC     H4Y      HAL2     0.900000E-01   1.00800           0
       902 MEMB     7        POPC     C35      CTL2    -0.180000       12.0110           0
       903 MEMB     7        POPC     H5X      HAL2     0.900000E-01   1.00800           0
       904 MEMB     7        POPC     H5Y      HAL2     0.900000E-01   1.00800           0
       905 MEMB     7        POPC     C36      CTL2    -0.180000       12.0110           0
       906 MEMB     7        POPC     H6X      HAL2     0.900000E-01   1.00800           0
       907 MEMB     7        POPC     H6Y      HAL2     0.900000E-01   1.00800           0
       908 MEMB     7        POPC     C37      CTL2    -0.180000       12.0110           0
       909 MEMB     7        POPC     H7X      HAL2     0.900000E-01   1.00800           0
       910 MEMB     7        POPC     H7Y      HAL2     0.900000E-01   1.00800           0
       911 MEMB     7        POPC     C38      CTL2    -0.180000       12.0110           0
       912 MEMB     7        POPC     H8X      HAL2     0.900000E-01   1.00800           0
       913 MEMB     7        POPC     H8Y      HAL2     0.900000E-01   1.00800           0
       914 MEMB     7        POPC     C39      CTL2    -0.180000       12.0110           0
       915 MEMB     7        POPC     H9X      HAL2     0.900000E-01   1.00800           0
       916 MEMB     7        POPC     H9Y      HAL2     0.900000E-01   1.00800           0
       917 MEMB     7        POPC     C310     CTL2    -0.180000       12.0110           0
       918 MEMB     7        POPC     H10X     HAL2     0.900000E-01   1.00800           0
       919 MEMB     7        POPC     H10Y     HAL2     0.900000E-01   1.00800           0
       920 MEMB     7        POPC     C311     CTL2    -0.180000       12.0110           0
       921 MEMB     7        POPC     H11X     HAL2     0.900000E-01   1.00800           0
       922 MEMB     7        POPC     H11Y     HAL2     0.900000E-01   1.00800           0
       923 MEMB     7        POPC     C312     CTL2    -0.180000       12.0110           0
       924 MEMB     7        POPC     H12X     HAL2     0.900000E-01   1.00800           0
       925 MEMB     7        POPC     H12Y     HAL2     0.900000E-01   1.00800           0
       926 MEMB     7        POPC     C313     CTL2    -0.180000       12.0110           0
       927 MEMB     7        POPC     H13X     HAL2     0.900000E-01   1.00800           0
       928 MEMB     7        POPC     H13Y     HAL2     0.900000E-01   1.00800           0
       929 MEMB     7        POPC     C314     CTL2    -0.180000       12.0110           0
       930 MEMB     7        POPC     H14X     HAL2     0.900000E-01   1.00800           0
       931 MEMB     7        POPC     H14Y     HAL2     0.900000E-01   1.00800           0
       932 MEMB     7        POPC     C315     CTL2    -0.180000       12.0110           0
       933 MEMB     7        POPC     H15X     HAL2     0.900000E-01   1.00800           0
       934 MEMB     7        POPC     H15Y     HAL2     0.900000E-01   1.00800           0
       935 MEMB     7        POPC     C316     CTL3    -0.270000       12.0110           0
       936 MEMB     7        POPC     H16X     HAL3     0.900000E-01   1.00800           0
       937 MEMB     7        POPC     H16Y     HAL3     0.900000E-01   1.00800           0
       938 MEMB     7        POPC     H16Z     HAL3     0.900000E-01   1.00800           0
       939 MEMB     8        POPC     N        NTL     -0.600000       14.0070           0
       940 MEMB     8        POPC     C12      CTL2    -0.100000       12.0110           0
       941 MEMB     8        POPC     H12A     HL       0.250000       1.00800           0
       942 MEMB     8        POPC     H12B     HL       0.250000       1.00800           0
       943 MEMB     8        POPC     C13      CTL5    -0.350000       12.0110           0
       944 MEMB     8        POPC     H13A     HL       0.250000       1.00800           0
       945 MEMB     8        POPC     H13B     HL       0.250000       1.00800           0
       946 MEMB     8        POPC     H13C     HL       0.250000       1.00800           0
       947 MEMB     8        POPC     C14      CTL5    -0.350000       12.0110           0
       948 MEMB     8        POPC     H14A     HL       0.250000       1.00800           0
       949 MEMB     8        POPC     H14B     HL       0.250000       1.00800           0
       950 MEMB     8        POPC     H14C     HL       0.250000       1.00800           0
       951 MEMB     8        POPC     C15      CTL5    -0.350000       12.0110           0
       952 MEMB     8        POPC     H15A     HL       0.250000       1.00800           0
       953 MEMB     8        POPC     H15B     HL       0.250000       1.00800           0
       954 MEMB     8        POPC     H15C     HL       0.250000       1.00800           0
       955 MEMB     8        POPC     C11      CTL2    -0.800000E-01   12.0110           0
       956 MEMB     8        POPC     H11A     HAL2     0.900000E-01   1.00800           0
       957 MEMB     8        POPC     H11B     HAL2     0.900000E-01   1.00800           0
       958 MEMB     8        POPC     P        PL        1.50000       30.9740           0
       959 MEMB     8        POPC     O13      O2L     -0.780000       15.9994           0
       960 MEMB     8        POPC     O14      O2L     -0.780000       15.9994           0
       961 MEMB     8        POPC     O12      OSLP    -0.570000       15.9994           0
       962 MEMB     8        POPC     O11      OSLP    -0.570000       15.9994           0
       963 MEMB     8        POPC     C1       CTL2    -0.800000E-01   12.0110           0
       964 MEMB     8        POPC     HA       HAL2     0.900000E-01   1.00800           0
       965 MEMB     8        POPC     HB       HAL2     0.900000E-01   1.00800           0
       966 MEMB     8        POPC     C2       CTL1     0.170000       12.0110           0
       967 MEMB     8        POPC     HS       HAL1     0.900000E-01   1.00800           0
       968 MEMB     8        POPC     O21      OSL     -0.490000       15.9994           0
       969 MEMB     8        POPC     C21      CL       0.900000       12.0110           0
       970 MEMB     8        POPC     O22      OBL     -0.630000       15.9994           0
       971 MEMB     8        POPC     C22      CTL2    -0.220000       12.0110           0
       972 MEMB     8        POPC     H2R      HAL2     0.900000E-01   1.00800           0
       973 MEMB     8        POPC     H2S      HAL2     0.900000E-01   1.00800           0
       974 MEMB     8        POPC     C3       CTL2     0.800000E-01   12.0110           0
       975 MEMB     8        POPC     HX       HAL2     0.900000E-01   1.00800           0
       976 MEMB     8        POPC     HY       HAL2     0.900000E-01   1.00800           0
       977 MEMB     8        POPC     O31      OSL     -0.490000       15.9994           0
       978 MEMB     8        POPC     C31      CL       0.900000       12.0110           0
       979 MEMB     8        POPC     O32      OBL     -0.630000       15.9994           0
       980 MEMB     8        POPC     C32      CTL2    -0.220000       12.0110           0
       981 MEMB     8        POPC     H2X      HAL2     0.900000E-01   1.00800           0
       982 MEMB     8        POPC     H2Y      HAL2     0.900000E-01   1.00800           0
       983 MEMB     8        POPC     C23      CTL2    -0.180000       12.0110           0
       984 MEMB     8        POPC     H3R      HAL2     0.900000E-01   1.00800           0
       985 MEMB     8        POPC     H3S      HAL2     0.900000E-01   1.00800           0
       986 MEMB     8        POPC     C24      CTL2    -0.180000       12.0110           0
       987 MEMB     8        POPC     H4R      HAL2     0.900000E-01   1.00800           0
       988 MEMB     8        POPC     H4S      HAL2     0.900000E-01   1.00800           0
       989 MEMB     8        POPC     C25      CTL2    -0.180000       12.0110           0
       990 MEMB     8        POPC     H5R      HAL2     0.900000E-01   1.00800           0
       991 MEMB     8        POPC     H5S      HAL2     0.900000E-01   1.00800           0
       992 MEMB     8        POPC     C26      CTL2    -0.180000       12.0110           0
       993 MEMB     8        POPC     H6R      HAL2     0.900000E-01   1.00800           0
       994 MEMB     8        POPC     H6S      HAL2     0.900000E-01   1.00800           0
       995 MEMB     8        POPC     C27      CTL2    -0.180000       12.0110           0
       996 MEMB     8        POPC     H7R      HAL2     0.900000E-01   1.00800           0
       997 MEMB     8        POPC     H7S      HAL2     0.900000E-01   1.00800           0
       998 MEMB     8        POPC     C28      CTL2    -0.180000       12.0110           0
       999 MEMB     8        POPC     H8R      HAL2     0.900000E-01   1.00800           0
      1000 MEMB     8        POPC     H8S      HAL2     0.900000E-01   1.00800           0
      1001 MEMB     8        POPC     C29      CEL1    -0.150000       12.0110           0
      1002 MEMB     8        POPC     H91      HEL1     0.150000       1.00800           0
      1003 MEMB     8        POPC     C210     CEL1    -0.150000       12.0110           0
      1004 MEMB     8        POPC     H101     HEL1     0.150000       1.00800           0
      1005 MEMB     8        POPC     C211     CTL2    -0.180000       12.0110           0
      1006 MEMB     8        POPC     H11R     HAL2     0.900000E-01   1.00800           0
      1007 MEMB     8        POPC     H11S     HAL2     0.900000E-01   1.00800           0
      1008 MEMB     8        POPC     C212     CTL2    -0.180000       12.0110           0
      1009 MEMB     8        POPC     H12R     HAL2     0.900000E-01   1.00800           0
      1010 MEMB     8        POPC     H12S     HAL2     0.900000E-01   1.00800           0
      1011 MEMB     8        POPC     C213     CTL2    -0.180000       12.0110           0
      1012 MEMB     8        POPC     H13R     HAL2     0.900000E-01   1.00800           0
      1013 MEMB     8        POPC     H13S     HAL2     0.900000E-01   1.00800           0
      1014 MEMB     8        POPC     C214     CTL2    -0.180000       12.0110           0
      1015 MEMB     8        POPC     H14R     HAL2     0.900000E-01   1.00800           0
      1016 MEMB     8        POPC     H14S     HAL2     0.900000E-01   1.00800           0
      1017 MEMB     8        POPC     C215     CTL2    -0.180000       12.0110           0
      1018 MEMB     8        POPC     H15R     HAL2     0.900000E-01   1.00800           0
      1019 MEMB     8        POPC     H15S     HAL2     0.900000E-01   1.00800           0
      1020 MEMB     8        POPC     C216     CTL2    -0.180000       12.0110           0
      1021 MEMB     8        POPC     H16R     HAL2     0.900000E-01   1.00800           0
      1022 MEMB     8        POPC     H16S     HAL2     0.900000E-01   1.00800           0
      1023 MEMB     8        POPC     C217     CTL2    -0.180000       12.0110           0
      1024 MEMB     8        POPC     H17R     HAL2     0.900000E-01   1.00800           0
      1025 MEMB     8        POPC     H17S     HAL2     0.900000E-01   1.00800           0
      1026 MEMB     8        POPC     C218     CTL3    -0.270000       12.0110           0
      1027 MEMB     8        POPC     H18R     HAL3     0.900000E-01   1.00800           0
      1028 MEMB     8        POPC     H18S     HAL3     0.900000E-01   1.00800           0
      1029 MEMB     8        POPC     H18T     HAL3     0.900000E-01   1.00800           0
      1030 MEMB     8        POPC     C33      CTL2    -0.180000       12.0110           0
      1031 MEMB     8        POPC     H3X      HAL2     0.900000E-01   1.00800           0
      1032 MEMB     8        POPC     H3Y      HAL2     0.900000E-01   1.00800           0
      1033 MEMB     8        POPC     C34      CTL2    -0.180000       12.0110           0
      1034 MEMB     8        POPC     H4X      HAL2     0.900000E-01   1.00800           0
      1035 MEMB     8        POPC     H4Y      HAL2     0.900000E-01   1.00800           0
      1036 MEMB     8        POPC     C35      CTL2    -0.180000       12.0110           0
      1037 MEMB     8        POPC     H5X      HAL2     0.900000E-01   1.00800           0
      1038 MEMB     8        POPC     H5Y      HAL2     0.900000E-01   1.00800           0
      1039 MEMB     8        POPC     C36      CTL2    -0.180000       12.0110           0
      1040 MEMB     8        POPC     H6X      HAL2     0.900000E-01   1.00800           0
      1041 MEMB     8        POPC     H6Y      HAL2     0.900000E-01   1.00800           0
      1042 MEMB     8        POPC     C37      CTL2    -0.180000       12.0110           0
      1043 MEMB     8        POPC     H7X      HAL2     0.900000E-01   1.00800           0
      1044 MEMB     8        POPC     H7Y      HAL2     0.900000E-01   1.00800           0
      1045 MEMB     8        POPC     C38      CTL2    -0.180000       12.0110           0
      1046 MEMB     8        POPC     H8X      HAL2     0.900000E-01   1.00800           0
      1047 MEMB     8        POPC     H8Y      HAL2     0.900000E-01   1.00800           0
      1048 MEMB     8        POPC     C39      CTL2    -0.180000       12.0110           0
      1049 MEMB     8        POPC     H9X      HAL2     0.900000E-01   1.00800           0
      1050 MEMB     8        POPC     H9Y      HAL2     0.900000E-01   1.00800           0
      1051 MEMB     8        POPC     C310     CTL2    -0.180000       12.0110           0
      1052 MEMB     8        POPC     H10X     HAL2     0.900000E-01   1.00800           0
      1053 MEMB     8        POPC     H10Y     HAL2     0.900000E-01   1.00800           0
      1054 MEMB     8        POPC     C311     CTL2    -0.180000       12.0110           0
      1055 MEMB     8        POPC     H11X     HAL2     0.900000E-01   1.00800           0
      1056 MEMB     8        POPC     H11Y     HAL2     0.900000E-01   1.00800           0
      1057 MEMB     8        POPC     C312     CTL2    -0.180000       12.0110           0
      1058 MEMB     8        POPC     H12X     HAL2     0.900000E-01   1.00800           0
      1059 MEMB     8        POPC     H12Y     HAL2     0.900000E-01   1.00800           0
      1060 MEMB     8        POPC     C313     CTL2    -0.180000       12.0110           0
      1061 MEMB     8        POPC     H13X     HAL2     0.900000E-01   1.00800           0
      1062 MEMB     8        POPC     H13Y     HAL2     0.900000E-01   1.00800           0
      1063 MEMB     8        POPC     C314     CTL2    -0.180000       12.0110           0
      1064 MEMB     8        POPC     H14X     HAL2     0.900000E-01   1.00800           0
      1065 MEMB     8        POPC     H14Y     HAL2     0.900000E-01   1.00800           0
      1066 MEMB     8        POPC     C315     CTL2    -0.180000       12.0110           0
      1067 MEMB     8        POPC     H15X     HAL2     0.900000E-01   1.00800           0
      1068 MEMB     8        POPC     H15Y     HAL2     0.900000E-01   1.00800           0
      1069 MEMB     8        POPC     C316     CTL3    -0.270000       12.0110           0
      1070 MEMB     8        POPC     H16X     HAL3     0.900000E-01   1.00800           0
      1071 MEMB     8        POPC     H16Y     HAL3     0.900000E-01   1.00800           0
      1072 MEMB     8        POPC     H16Z     HAL3     0.900000E-01   1.00800           0
      1073 MEMB     9        POPC     N        NTL     -0.600000       14.0070           0
      1074 MEMB     9        POPC     C12      CTL2    -0.100000       12.0110           0
      1075 MEMB     9        POPC     H12A     HL       0.250000       1.00800           0
      1076 MEMB     9        POPC     H12B     HL       0.250000       1.00800           0
      1077 MEMB     9        POPC     C13      CTL5    -0.350000       12.0110           0
      1078 MEMB     9        POPC     H13A     HL       0.250000       1.00800           0
      1079 MEMB     9        POPC     H13B     HL       0.250000       1.00800           0
      1080 MEMB     9        POPC     H13C     HL       0.250000       1.00800           0
      1081 MEMB     9        POPC     C14      CTL5    -0.350000       12.0110           0
      1082 MEMB     9        POPC     H14A     HL       0.250000       1.00800           0
      1083 MEMB     9        POPC     H14B     HL       0.250000       1.00800           0
      1084 MEMB     9        POPC     H14C     HL       0.250000       1.00800           0
      1085 MEMB     9        POPC     C15      CTL5    -0.350000       12.0110           0
      1086 MEMB     9        POPC     H15A     HL       0.250000       1.00800           0
      1087 MEMB     9        POPC     H15B     HL       0.250000       1.00800           0
      1088 MEMB     9        POPC     H15C     HL       0.250000       1.00800           0
      1089 MEMB     9        POPC     C11      CTL2    -0.800000E-01   12.0110           0
      1090 MEMB     9        POPC     H11A     HAL2     0.900000E-01   1.00800           0
      1091 MEMB     9        POPC     H11B     HAL2     0.900000E-01   1.00800           0
      1092 MEMB     9        POPC     P        PL        1.50000       30.9740           0
      1093 MEMB     9        POPC     O13      O2L     -0.780000       15.9994           0
      1094 MEMB     9        POPC     O14      O2L     -0.780000       15.9994           0
      1095 MEMB     9        POPC     O12      OSLP    -0.570000       15.9994           0
      1096 MEMB     9        POPC     O11      OSLP    -0.570000       15.9994           0
      1097 MEMB     9        POPC     C1       CTL2    -0.800000E-01   12.0110           0
      1098 MEMB     9        POPC     HA       HAL2     0.900000E-01   1.00800           0
      1099 MEMB     9        POPC     HB       HAL2     0.900000E-01   1.00800           0
      1100 MEMB     9        POPC     C2       CTL1     0.170000       12.0110           0
      1101 MEMB     9        POPC     HS       HAL1     0.900000E-01   1.00800           0
      1102 MEMB     9        POPC     O21      OSL     -0.490000       15.9994           0
      1103 MEMB     9        POPC     C21      CL       0.900000       12.0110           0
      1104 MEMB     9        POPC     O22      OBL     -0.630000       15.9994           0
      1105 MEMB     9        POPC     C22      CTL2    -0.220000       12.0110           0
      1106 MEMB     9        POPC     H2R      HAL2     0.900000E-01   1.00800           0
      1107 MEMB     9        POPC     H2S      HAL2     0.900000E-01   1.00800           0
      1108 MEMB     9        POPC     C3       CTL2     0.800000E-01   12.0110           0
      1109 MEMB     9        POPC     HX       HAL2     0.900000E-01   1.00800           0
      1110 MEMB     9        POPC     HY       HAL2     0.900000E-01   1.00800           0
      1111 MEMB     9        POPC     O31      OSL     -0.490000       15.9994           0
      1112 MEMB     9        POPC     C31      CL       0.900000       12.0110           0
      1113 MEMB     9        POPC     O32      OBL     -0.630000       15.9994           0
      1114 MEMB     9        POPC     C32      CTL2    -0.220000       12.0110           0
      1115 MEMB     9        POPC     H2X      HAL2     0.900000E-01   1.00800           0
      1116 MEMB     9        POPC     H2Y      HAL2     0.900000E-01   1.00800           0
      1117 MEMB     9        POPC     C23      CTL2    -0.180000       12.0110           0
      1118 MEMB     9        POPC     H3R      HAL2     0.900000E-01   1.00800           0
      1119 MEMB     9        POPC     H3S      HAL2     0.900000E-01   1.00800           0
      1120 MEMB     9        POPC     C24      CTL2    -0.180000       12.0110           0
      1121 MEMB     9        POPC     H4R      HAL2     0.900000E-01   1.00800           0
      1122 MEMB     9        POPC     H4S      HAL2     0.900000E-01   1.00800           0
      1123 MEMB     9        POPC     C25      CTL2    -0.180000       12.0110           0
      1124 MEMB     9        POPC     H5R      HAL2     0.900000E-01   1.00800           0
      1125 MEMB     9        POPC     H5S      HAL2     0.900000E-01   1.00800           0
      1126 MEMB     9        POPC     C26      CTL2    -0.180000       12.0110           0
      1127 MEMB     9        POPC     H6R      HAL2     0.900000E-01   1.00800           0
      1128 MEMB     9        POPC     H6S      HAL2     0.900000E-01   1.00800           0
      1129 MEMB     9        POPC     C27      CTL2    -0.180000       12.0110           0
      1130 MEMB     9        POPC     H7R      HAL2     0.900000E-01   1.00800           0
      1131 MEMB     9        POPC     H7S      HAL2     0.900000E-01   1.00800           0
      1132 MEMB     9        POPC     C28      CTL2    -0.180000       12.0110           0
      1133 MEMB     9        POPC     H8R      HAL2     0.900000E-01   1.00800           0
      1134 MEMB     9        POPC     H8S      HAL2     0.900000E-01   1.00800           0
      1135 MEMB     9        POPC     C29      CEL1    -0.150000       12.0110           0
      1136 MEMB     9        POPC     H91      HEL1     0.150000       1.00800           0
      1137 MEMB     9        POPC     C210     CEL1    -0.150000       12.0110           0
      1138 MEMB     9        POPC     H101     HEL1     0.150000       1.00800           0
      1139 MEMB     9        POPC     C211     CTL2    -0.180000       12.0110           0
      1140 MEMB     9        POPC     H11R     HAL2     0.900000E-01   1.00800           0
      1141 MEMB     9        POPC     H11S     HAL2     0.900000E-01   1.00800           0
      1142 MEMB     9        POPC     C212     CTL2    -0.180000       12.0110           0
      1143 MEMB     9        POPC     H12R     HAL2     0.900000E-01   1.00800           0
      1144 MEMB     9        POPC     H12S     HAL2     0.900000E-01   1.00800           0
      1145 MEMB     9        POPC     C213     CTL2    -0.180000       12.0110           0
      1146 MEMB     9        POPC     H13R     HAL2     0.900000E-01   1.00800           0
      1147 MEMB     9        POPC     H13S     HAL2     0.900000E-01   1.00800           0
      1148 MEMB     9        POPC     C214     CTL2    -0.180000       12.0110           0
      1149 MEMB     9        POPC     H14R     HAL2     0.900000E-01   1.00800           0
      1150 MEMB     9        POPC     H14S     HAL2     0.900000E-01   1.00800           0
      1151 MEMB     9        POPC     C215     CTL2    -0.180000       12.0110           0
      1152 MEMB     9        POPC     H15R     HAL2     0.900000E-01   1.00800           0
      1153 MEMB     9        POPC     H15S     HAL2     0.900000E-01   1.00800           0
      1154 MEMB     9        POPC     C216     CTL2    -0.180000       12.0110           0
      1155 MEMB     9        POPC     H16R     HAL2     0.900000E-01   1.00800           0
      1156 MEMB     9        POPC     H16S     HAL2     0.900000E-01   1.00800           0
      1157 MEMB     9        POPC     C217     CTL2    -0.180000       12.0110           0
      1158 MEMB     9        POPC     H17R     HAL2     0.900000E-01   1.00800           0
      1159 MEMB     9        POPC     H17S     HAL2     0.900000E-01   1.00800           0
      1160 MEMB     9        POPC     C218     CTL3    -0.270000       12.0110           0
      1161 MEMB     9        POPC     H18R     HAL3     0.900000E-01   1.00800           0
      1162 MEMB     9        POPC     H18S     HAL3     0.900000E-01   1.00800           0
      1163 MEMB     9        POPC     H18T     HAL3     0.900000E-01   1.00800           0
      1164 MEMB     9        POPC     C33      CTL2    -0.180000       12.0110           0
      1165 MEMB     9        POPC     H3X      HAL2     0.900000E-01   1.00800           0
      1166 MEMB     9        POPC     H3Y      HAL2     0.900000E-01   1.00800           0
      1167 MEMB     9        POPC     C34      CTL2    -0.180000       12.0110           0
      1168 MEMB     9        POPC     H4X      HAL2     0.900000E-01   1.00800           0
      1169 MEMB     9        POPC     H4Y      HAL2     0.900000E-01   1.00800           0
      1170 MEMB     9        POPC     C35      CTL2    -0.180000       12.0110           0
      1171 MEMB     9        POPC     H5X      HAL2     0.900000E-01   1.00800           0
      1172 MEMB     9        POPC     H5Y      HAL2     0.900000E-01   1.00800           0
      1173 MEMB     9        POPC     C36      CTL2    -0.180000       12.0110           0
      1174 MEMB     9        POPC     H6X      HAL2     0.900000E-01   1.00800           0
      1175 MEMB     9        POPC     H6Y      HAL2     0.900000E-01   1.00800           0
      1176 MEMB     9        POPC     C37      CTL2    -0.180000       12.0110           0
      1177 MEMB     9        POPC     H7X      HAL2     0.900000E-01   1.00800           0
      1178 MEMB     9        POPC     H7Y      HAL2     0.900000E-01   1.00800           0
      1179 MEMB     9        POPC     C38      CTL2    -0.180000       12.0110           0
      1180 MEMB     9        POPC     H8X      HAL2     0.900000E-01   1.00800           0
      1181 MEMB     9        POPC     H8Y      HAL2     0.900000E-01   1.00800           0
      1182 MEMB     9        POPC     C39      CTL2    -0.180000       12.0110           0
      1183 MEMB     9        POPC     H9X      HAL2     0.900000E-01   1.00800           0
      1184 MEMB     9        POPC     H9Y      HAL2     0.900000E-01   1.00800           0
      1185 MEMB     9        POPC     C310     CTL2    -0.180000       12.0110           0
      1186 MEMB     9        POPC     H10X     HAL2     0.900000E-01   1.00800           0
      1187 MEMB     9        POPC     H10Y     HAL2     0.900000E-01   1.00800           0
      1188 MEMB     9        POPC     C311     CTL2    -0.180000       12.0110           0
      1189 MEMB     9        POPC     H11X     HAL2     0.900000E-01   1.00800           0
      1190 MEMB     9        POPC     H11Y     HAL2     0.900000E-01   1.00800           0
      1191 MEMB     9        POPC     C312     CTL2    -0.180000       12.0110           0
      1192 MEMB     9        POPC     H12X     HAL2     0.900000E-01   1.00800           0
      1193 MEMB     9        POPC     H12Y     HAL2     0.900000E-01   1.00800           0
      1194 MEMB     9        POPC     C313     CTL2    -0.180000       12.0110           0
      1195 MEMB     9        POPC     H13X     HAL2     0.900000E-01   1.00800           0
      1196 MEMB     9        POPC     H13Y     HAL2     0.900000E-01   1.00800           0
      1197 MEMB     9        POPC     C314     CTL2    -0.180000       12.0110           0
      1198 MEMB     9        POPC     H14X     HAL2     0.900000E-01   1.00800           0
      1199 MEMB     9        POPC     H14Y     HAL2     0.900000E-01   1.00800           0
      1200 MEMB     9        POPC     C315     CTL2    -0.180000       12.0110           0
      1201 MEMB     9        POPC     H15X     HAL2     0.900000E-01   1.00800           0
      1202 MEMB     9        POPC     H15Y     HAL2     0.900000E-01   1.00800           0
      1203 MEMB     9        POPC     C316     CTL3    -0.270000       12.0110           0
      1204 MEMB     9        POPC     H16X     HAL3     0.900000E-01   1.00800           0
      1205 MEMB     9        POPC     H16Y     HAL3     0.900000E-01   1.00800           0
      1206 MEMB     9        POPC     H16Z     HAL3     0.900000E-01   1.00800           0
      1207 MEMB     10       POPC     N        NTL     -0.600000       14.0070           0
      1208 MEMB     10       POPC     C12      CTL2    -0.100000       12.0110           0
      1209 MEMB     10       POPC     H12A     HL       0.250000       1.00800           0
      1210 MEMB     10       POPC     H12B     HL       0.250000       1.00800           0
      1211 MEMB     10       POPC     C13      CTL5    -0.350000       12.0110           0
      1212 MEMB     10       POPC     H13A     HL       0.250000       1.00800           0
      1213 MEMB     10       POPC     H13B     HL       0.250000       1.00800           0
      1214 MEMB     10       POPC     H13C     HL       0.250000       1.00800           0
      1215 MEMB     10       POPC     C14      CTL5    -0.350000       12.0110           0
      1216 MEMB     10       POPC     H14A     HL       0.250000       1.00800           0
      1217 MEMB     10       POPC     H14B     HL       0.250000       1.00800           0
      1218 MEMB     10       POPC     H14C     HL       0.250000       1.00800           0
      1219 MEMB     10       POPC     C15      CTL5    -0.350000       12.0110           0
      1220 MEMB     10       POPC     H15A     HL       0.250000       1.00800           0
      1221 MEMB     10       POPC     H15B     HL       0.250000       1.00800           0
      1222 MEMB     10       POPC     H15C     HL       0.250000       1.00800           0
      1223 MEMB     10       POPC     C11      CTL2    -0.800000E-01   12.0110           0
      1224 MEMB     10       POPC     H11A     HAL2     0.900000E-01   1.00800           0
      1225 MEMB     10       POPC     H11B     HAL2     0.900000E-01   1.00800           0
      1226 MEMB     10       POPC     P        PL        1.50000       30.9740           0
      1227 MEMB     10       POPC     O13      O2L     -0.780000       15.9994           0
      1228 MEMB     10       POPC     O14      O2L     -0.780000       15.9994           0
      1229 MEMB     10       POPC     O12      OSLP    -0.570000       15.9994           0
      1230 MEMB     10       POPC     O11      OSLP    -0.570000       15.9994           0
      1231 MEMB     10       POPC     C1       CTL2    -0.800000E-01   12.0110           0
      1232 MEMB     10       POPC     HA       HAL2     0.900000E-01   1.00800           0
      1233 MEMB     10       POPC     HB       HAL2     0.900000E-01   1.00800           0
      1234 MEMB     10       POPC     C2       CTL1     0.170000       12.0110           0
      1235 MEMB     10       POPC     HS       HAL1     0.900000E-01   1.00800           0
      1236 MEMB     10       POPC     O21      OSL     -0.490000       15.9994           0
      1237 MEMB     10       POPC     C21      CL       0.900000       12.0110           0
      1238 MEMB     10       POPC     O22      OBL     -0.630000       15.9994           0
      1239 MEMB     10       POPC     C22      CTL2    -0.220000       12.0110           0
      1240 MEMB     10       POPC     H2R      HAL2     0.900000E-01   1.00800           0
      1241 MEMB     10       POPC     H2S      HAL2     0.900000E-01   1.00800           0
      1242 MEMB     10       POPC     C3       CTL2     0.800000E-01   12.0110           0
      1243 MEMB     10       POPC     HX       HAL2     0.900000E-01   1.00800           0
      1244 MEMB     10       POPC     HY       HAL2     0.900000E-01   1.00800           0
      1245 MEMB     10       POPC     O31      OSL     -0.490000       15.9994           0
      1246 MEMB     10       POPC     C31      CL       0.900000       12.0110           0
      1247 MEMB     10       POPC     O32      OBL     -0.630000       15.9994           0
      1248 MEMB     10       POPC     C32      CTL2    -0.220000       12.0110           0
      1249 MEMB     10       POPC     H2X      HAL2     0.900000E-01   1.00800           0
      1250 MEMB     10       POPC     H2Y      HAL2     0.900000E-01   1.00800           0
      1251 MEMB     10       POPC     C23      CTL2    -0.180000       12.0110           0
      1252 MEMB     10       POPC     H3R      HAL2     0.900000E-01   1.00800           0
      1253 MEMB     10       POPC     H3S      HAL2     0.900000E-01   1.00800           0
      1254 MEMB     10       POPC     C24      CTL2    -0.180000       12.0110           0
      1255 MEMB     10       POPC     H4R      HAL2     0.900000E-01   1.00800           0
      1256 MEMB     10       POPC     H4S      HAL2     0.900000E-01   1.00800           0
      1257 MEMB     10       POPC     C25      CTL2    -0.180000       12.0110           0
      1258 MEMB     10       POPC     H5R      HAL2     0.900000E-01   1.00800           0
      1259 MEMB     10       POPC     H5S      HAL2     0.900000E-01   1.00800           0
      1260 MEMB     10       POPC     C26      CTL2    -0.180000       12.0110           0
      1261 MEMB     10       POPC     H6R      HAL2     0.900000E-01   1.00800           0
      1262 MEMB     10       POPC     H6S      HAL2     0.900000E-01   1.00800           0
      1263 MEMB     10       POPC     C27      CTL2    -0.180000       12.0110           0
      1264 MEMB     10       POPC     H7R      HAL2     0.900000E-01   1.00800           0
      1265 MEMB     10       POPC     H7S      HAL2     0.900000E-01   1.00800           0
      1266 MEMB     10       POPC     C28      CTL2    -0.180000       12.0110           0
      1267 MEMB     10       POPC     H8R      HAL2     0.900000E-01   1.00800           0
      1268 MEMB     10       POPC     H8S      HAL2     0.900000E-01   1.00800           0
      1269 MEMB     10       POPC     C29      CEL1    -0.150000       12.0110           0
      1270 MEMB     10       POPC     H91      HEL1     0.150000       1.00800           0
      1271 MEMB     10       POPC     C210     CEL1    -0.150000       12.0110           0
      1272 MEMB     10       POPC     H101     HEL1     0.150000       1.00800           0
      1273 MEMB     10       POPC     C211     CTL2    -0.180000       12.0110           0
      1274 MEMB     10       POPC     H11R     HAL2     0.900000E-01   1.00800           0
      1275 MEMB     10       POPC     H11S     HAL2     0.900000E-01   1.00800           0
      1276 MEMB     10       POPC     C212     CTL2    -0.180000       12.0110           0
      1277 MEMB     10       POPC     H12R     HAL2     0.900000E-01   1.00800           0
      1278 MEMB     10       POPC     H12S     HAL2     0.900000E-01   1.00800           0
      1279 MEMB     10       POPC     C213     CTL2    -0.180000       12.0110           0
      1280 MEMB     10       POPC     H13R     HAL2     0.900000E-01   1.00800           0
      1281 MEMB     10       POPC     H13S     HAL2     0.900000E-01   1.00800           0
      1282 MEMB     10       POPC     C214     CTL2    -0.180000       12.0110           0
      1283 MEMB     10       POPC     H14R     HAL2     0.900000E-01   1.00800           0
      1284 MEMB     10       POPC     H14S     HAL2     0.900000E-01   1.00800           0
      1285 MEMB     10       POPC     C215     CTL2    -0.180000       12.0110           0
      1286 MEMB     10       POPC     H15R     HAL2     0.900000E-01   1.00800           0
      1287 MEMB     10       POPC     H15S     HAL2     0.900000E-01   1.00800           0
      1288 MEMB     10       POPC     C216     CTL2    -0.180000       12.0110           0
      1289 MEMB     10       POPC     H16R     HAL2     0.900000E-01   1.00800           0
      1290 MEMB     10       POPC     H16S     HAL2     0.900000E-01   1.00800           0
      1291 MEMB     10       POPC     C217     CTL2    -0.180000       12.0110           0
      1292 MEMB     10       POPC     H17R     HAL2     0.900000E-01   1.00800           0
      1293 MEMB     10       POPC     H17S     HAL2     0.900000E-01   1.00800           0
      1294 MEMB     10       POPC     C218     CTL3    -0.270000       12.0110           0
      1295 MEMB     10       POPC     H18R     HAL3     0.900000E-01   1.00800           0
      1296 MEMB     10       POPC     H18S     HAL3     0.900000E-01   1.00800           0
      1297 MEMB     10       POPC     H18T     HAL3     0.900000E-01   1.00800           0
      1298 MEMB     10       POPC     C33      CTL2    -0.180000       12.0110           0
      1299 MEMB     10       POPC     H3X      HAL2     0.900000E-01   1.00800           0
      1300 MEMB     10       POPC     H3Y      HAL2     0.900000E-01   1.00800           0
      1301 MEMB     10       POPC     C34      CTL2    -0.180000       12.0110           0
      1302 MEMB     10       POPC     H4X      HAL2     0.900000E-01   1.00800           0
      1303 MEMB     10       POPC     H4Y      HAL2     0.900000E-01   1.00800           0
      1304 MEMB     10       POPC     C35      CTL2    -0.180000       12.0110           0
      1305 MEMB     10       POPC     H5X      HAL2     0.900000E-01   1.00800           0
      1306 MEMB     10       POPC     H5Y      HAL2     0.900000E-01   1.00800           0
      1307 MEMB     10       POPC     C36      CTL2    -0.180000       12.0110           0
      1308 MEMB     10       POPC     H6X      HAL2     0.900000E-01   1.00800           0
      1309 MEMB     10       POPC     H6Y      HAL2     0.900000E-01   1.00800           0
      1310 MEMB     10       POPC     C37      CTL2    -0.180000       12.0110           0
      1311 MEMB     10       POPC     H7X      HAL2     0.900000E-01   1.00800           0
      1312 MEMB     10       POPC     H7Y      HAL2     0.900000E-01   1.00800           0
      1313 MEMB     10       POPC     C38      CTL2    -0.180000       12.0110           0
      1314 MEMB     10       POPC     H8X      HAL2     0.900000E-01   1.00800           0
      1315 MEMB     10       POPC     H8Y      HAL2     0.900000E-01   1.00800           0
      1316 MEMB     10       POPC     C39      CTL2    -0.180000       12.0110           0
      1317 MEMB     10       POPC     H9X      HAL2     0.900000E-01   1.00800           0
      1318 MEMB     10       POPC     H9Y      HAL2     0.900000E-01   1.00800           0
      1319 MEMB     10       POPC     C310     CTL2    -0.180000       12.0110           0
      1320 MEMB     10       POPC     H10X     HAL2     0.900000E-01   1.00800           0
      1321 MEMB     10       POPC     H10Y     HAL2     0.900000E-01   1.00800           0
      1322 MEMB     10       POPC     C311     CTL2    -0.180000       12.0110           0
      1323 MEMB     10       POPC     H11X     HAL2     0.900000E-01   1.00800           0
      1324 MEMB     10       POPC     H11Y     HAL2     0.900000E-01   1.00800           0
      1325 MEMB     10       POPC     C312     CTL2    -0.180000       12.0110           0
      1326 MEMB     10       POPC     H12X     HAL2     0.900000E-01   1.00800           0
      1327 MEMB     10       POPC     H12Y     HAL2     0.900000E-01   1.00800           0
      1328 MEMB     10       POPC     C313     CTL2    -0.180000       12.0110           0
      1329 MEMB     10       POPC     H13X     HAL2     0.900000E-01   1.00800           0
      1330 MEMB     10       POPC     H13Y     HAL2     0.900000E-01   1.00800           0
      1331 MEMB     10       POPC     C314     CTL2    -0.180000       12.0110           0
      1332 MEMB     10       POPC     H14X     HAL2     0.900000E-01   1.00800           0
      1333 MEMB     10       POPC     H14Y     HAL2     0.900000E-01   1.00800           0
      1334 MEMB     10       POPC     C315     CTL2    -0.180000       12.0110           0
      1335 MEMB     10       POPC     H15X     HAL2     0.900000E-01   1.00800           0
      1336 MEMB     10       POPC     H15Y     HAL2     0.900000E-01   1.00800           0
      1337 MEMB     10       POPC     C316     CTL3    -0.270000       12.0110           0
      1338 MEMB     10       POPC     H16X     HAL3     0.900000E-01   1.00800           0
      1339 MEMB     10       POPC     H16Y     HAL3     0.900000E-01   1.00800           0
      1340 MEMB     10       POPC     H16Z     HAL3     0.900000E-01   1.00800           0
      1341 MEMB     11       POPC     N        NTL     -0.600000       14.0070           0
      1342 MEMB     11       POPC     C12      CTL2    -0.100000       12.0110           0
      1343 MEMB     11       POPC     H12A     HL       0.250000       1.00800           0
      1344 MEMB     11       POPC     H12B     HL       0.250000       1.00800           0
      1345 MEMB     11       POPC     C13      CTL5    -0.350000       12.0110           0
      1346 MEMB     11       POPC     H13A     HL       0.250000       1.00800           0
      1347 MEMB     11       POPC     H13B     HL       0.250000       1.00800           0
      1348 MEMB     11       POPC     H13C     HL       0.250000       1.00800           0
      1349 MEMB     11       POPC     C14      CTL5    -0.350000       12.0110           0
      1350 MEMB     11       POPC     H14A     HL       0.250000       1.00800           0
      1351 MEMB     11       POPC     H14B     HL       0.250000       1.00800           0
      1352 MEMB     11       POPC     H14C     HL       0.250000       1.00800           0
      1353 MEMB     11       POPC     C15      CTL5    -0.350000       12.0110           0
      1354 MEMB     11       POPC     H15A     HL       0.250000       1.00800           0
      1355 MEMB     11       POPC     H15B     HL       0.250000       1.00800           0
      1356 MEMB     11       POPC     H15C     HL       0.250000       1.00800           0
      1357 MEMB     11       POPC     C11      CTL2    -0.800000E-01   12.0110           0
      1358 MEMB     11       POPC     H11A     HAL2     0.900000E-01   1.00800           0
      1359 MEMB     11       POPC     H11B     HAL2     0.900000E-01   1.00800           0
      1360 MEMB     11       POPC     P        PL        1.50000       30.9740           0
      1361 MEMB     11       POPC     O13      O2L     -0.780000       15.9994           0
      1362 MEMB     11       POPC     O14      O2L     -0.780000       15.9994           0
      1363 MEMB     11       POPC     O12      OSLP    -0.570000       15.9994           0
      1364 MEMB     11       POPC     O11      OSLP    -0.570000       15.9994           0
      1365 MEMB     11       POPC     C1       CTL2    -0.800000E-01   12.0110           0
      1366 MEMB     11       POPC     HA       HAL2     0.900000E-01   1.00800           0
      1367 MEMB     11       POPC     HB       HAL2     0.900000E-01   1.00800           0
      1368 MEMB     11       POPC     C2       CTL1     0.170000       12.0110           0
      1369 MEMB     11       POPC     HS       HAL1     0.900000E-01   1.00800           0
      1370 MEMB     11       POPC     O21      OSL     -0.490000       15.9994           0
      1371 MEMB     11       POPC     C21      CL       0.900000       12.0110           0
      1372 MEMB     11       POPC     O22      OBL     -0.630000       15.9994           0
      1373 MEMB     11       POPC     C22      CTL2    -0.220000       12.0110           0
      1374 MEMB     11       POPC     H2R      HAL2     0.900000E-01   1.00800           0
      1375 MEMB     11       POPC     H2S      HAL2     0.900000E-01   1.00800           0
      1376 MEMB     11       POPC     C3       CTL2     0.800000E-01   12.0110           0
      1377 MEMB     11       POPC     HX       HAL2     0.900000E-01   1.00800           0
      1378 MEMB     11       POPC     HY       HAL2     0.900000E-01   1.00800           0
      1379 MEMB     11       POPC     O31      OSL     -0.490000       15.9994           0
      1380 MEMB     11       POPC     C31      CL       0.900000       12.0110           0
      1381 MEMB     11       POPC     O32      OBL     -0.630000       15.9994           0
      1382 MEMB     11       POPC     C32      CTL2    -0.220000       12.0110           0
      1383 MEMB     11       POPC     H2X      HAL2     0.900000E-01   1.00800           0
      1384 MEMB     11       POPC     H2Y      HAL2     0.900000E-01   1.00800           0
      1385 MEMB     11       POPC     C23      CTL2    -0.180000       12.0110           0
      1386 MEMB     11       POPC     H3R      HAL2     0.900000E-01   1.00800           0
      1387 MEMB     11       POPC     H3S      HAL2     0.900000E-01   1.00800           0
      1388 MEMB     11       POPC     C24      CTL2    -0.180000       12.0110           0
      1389 MEMB     11       POPC     H4R      HAL2     0.900000E-01   1.00800           0
      1390 MEMB     11       POPC     H4S      HAL2     0.900000E-01   1.00800           0
      1391 MEMB     11       POPC     C25      CTL2    -0.180000       12.0110           0
      1392 MEMB     11       POPC     H5R      HAL2     0.900000E-01   1.00800           0
      1393 MEMB     11       POPC     H5S      HAL2     0.900000E-01   1.00800           0
      1394 MEMB     11       POPC     C26      CTL2    -0.180000       12.0110           0
      1395 MEMB     11       POPC     H6R      HAL2     0.900000E-01   1.00800           0
      1396 MEMB     11       POPC     H6S      HAL2     0.900000E-01   1.00800           0
      1397 MEMB     11       POPC     C27      CTL2    -0.180000       12.0110           0
      1398 MEMB     11       POPC     H7R      HAL2     0.900000E-01   1.00800           0
      1399 MEMB     11       POPC     H7S      HAL2     0.900000E-01   1.00800           0
      1400 MEMB     11       POPC     C28      CTL2    -0.180000       12.0110           0
      1401 MEMB     11       POPC     H8R      HAL2     0.900000E-01   1.00800           0
      1402 MEMB     11       POPC     H8S      HAL2     0.900000E-01   1.00800           0
      1403 MEMB     11       POPC     C29      CEL1    -0.150000       12.0110           0
      1404 MEMB     11       POPC     H91      HEL1     0.150000       1.00800           0
      1405 MEMB     11       POPC     C210     CEL1    -0.150000       12.0110           0
      1406 MEMB     11       POPC     H101     HEL1     0.150000       1.00800           0
      1407 MEMB     11       POPC     C211     CTL2    -0.180000       12.0110           0
      1408 MEMB     11       POPC     H11R     HAL2     0.900000E-01   1.00800           0
      1409 MEMB     11       POPC     H11S     HAL2     0.900000E-01   1.00800           0
      1410 MEMB     11       POPC     C212     CTL2    -0.180000       12.0110           0
      1411 MEMB     11       POPC     H12R     HAL2     0.900000E-01   1.00800           0
      1412 MEMB     11       POPC     H12S     HAL2     0.900000E-01   1.00800           0
      1413 MEMB     11       POPC     C213     CTL2    -0.180000       12.0110           0
      1414 MEMB     11       POPC     H13R     HAL2     0.900000E-01   1.00800           0
      1415 MEMB     11       POPC     H13S     HAL2     0.900000E-01   1.00800           0
      1416 MEMB     11       POPC     C214     CTL2    -0.180000       12.0110           0
      1417 MEMB     11       POPC     H14R     HAL2     0.900000E-01   1.00800           0
      1418 MEMB     11       POPC     H14S     HAL2     0.900000E-01   1.00800           0
      1419 MEMB     11       POPC     C215     CTL2    -0.180000       12.0110           0
      1420 MEMB     11       POPC     H15R     HAL2     0.900000E-01   1.00800           0
      1421 MEMB     11       POPC     H15S     HAL2     0.900000E-01   1.00800           0
      1422 MEMB     11       POPC     C216     CTL2    -0.180000       12.0110           0
      1423 MEMB     11       POPC     H16R     HAL2     0.900000E-01   1.00800           0
      1424 MEMB     11       POPC     H16S     HAL2     0.900000E-01   1.00800           0
      1425 MEMB     11       POPC     C217     CTL2    -0.180000       12.0110           0
      1426 MEMB     11       POPC     H17R     HAL2     0.900000E-01   1.00800           0
      1427 MEMB     11       POPC     H17S     HAL2     0.900000E-01   1.00800           0
      1428 MEMB     11       POPC     C218     CTL3    -0.270000       12.0110           0
      1429 MEMB     11       POPC     H18R     HAL3     0.900000E-01   1.00800           0
      1430 MEMB     11       POPC     H18S     HAL3     0.900000E-01   1.00800           0
      1431 MEMB     11       POPC     H18T     HAL3     0.900000E-01   1.00800           0
      1432 MEMB     11       POPC     C33      CTL2    -0.180000       12.0110           0
      1433 MEMB     11       POPC     H3X      HAL2     0.900000E-01   1.00800           0
      1434 MEMB     11       POPC     H3Y      HAL2     0.900000E-01   1.00800           0
      1435 MEMB     11       POPC     C34      CTL2    -0.180000       12.0110           0
      1436 MEMB     11       POPC     H4X      HAL2     0.900000E-01   1.00800           0
      1437 MEMB     11       POPC     H4Y      HAL2     0.900000E-01   1.00800           0
      1438 MEMB     11       POPC     C35      CTL2    -0.180000       12.0110           0
      1439 MEMB     11       POPC     H5X      HAL2     0.900000E-01   1.00800           0
      1440 MEMB     11       POPC     H5Y      HAL2     0.900000E-01   1.00800           0
      1441 MEMB     11       POPC     C36      CTL2    -0.180000       12.0110           0
      1442 MEMB     11       POPC     H6X      HAL2     0.900000E-01   1.00800           0
      1443 MEMB     11       POPC     H6Y      HAL2     0.900000E-01   1.00800           0
      1444 MEMB     11       POPC     C37      CTL2    -0.180000       12.0110           0
      1445 MEMB     11       POPC     H7X      HAL2     0.900000E-01   1.00800           0
      1446 MEMB     11       POPC     H7Y      HAL2     0.900000E-01   1.00800           0
      1447 MEMB     11       POPC     C38      CTL2    -0.180000       12.0110           0
      1448 MEMB     11       POPC     H8X      HAL2     0.900000E-01   1.00800           0
      1449 MEMB     11       POPC     H8Y      HAL2     0.900000E-01   1.00800           0
      1450 MEMB     11       POPC     C39      CTL2    -0.180000       12.0110           0
      1451 MEMB     11       POPC     H9X      HAL2     0.900000E-01   1.00800           0
      1452 MEMB     11       POPC     H9Y      HAL2     0.900000E-01   1.00800           0
      1453 MEMB     11       POPC     C310     CTL2    -0.180000       12.0110           0
      1454 MEMB     11       POPC     H10X     HAL2     0.900000E-01   1.00800           0
      1455 MEMB     11       POPC     H10Y     HAL2     0.900000E-01   1.00800           0
      1456 MEMB     11       POPC     C311     CTL2    -0.180000       12.0110           0
      1457 MEMB     11       POPC     H11X     HAL2     0.900000E-01   1.00800           0
      1458 MEMB     11       POPC     H11Y     HAL2     0.900000E-01   1.00800           0
      1459 MEMB     11       POPC     C312     CTL2    -0.180000       12.0110           0
      1460 MEMB     11       POPC     H12X     HAL2     0.900000E-01   1.00800           0
      1461 MEMB     11       POPC     H12Y     HAL2     0.900000E-01   1.00800           0
      1462 MEMB     11       POPC     C313     CTL2    -0.180000       12.0110           0
      1463 MEMB     11       POPC     H13X     HAL2     0.900000E-01   1.00800           0
      1464 MEMB     11       POPC     H13Y     HAL2     0.900000E-01   1.00800           0
      1465 MEMB     11       POPC     C314     CTL2    -0.180000       12.0110           0
      1466 MEMB     11       POPC     H14X     HAL2     0.900000E-01   1.00800           0
      1467 MEMB     11       POPC     H14Y     HAL2     0.900000E-01   1.00800           0
      1468 MEMB     11       POPC     C315     CTL2    -0.180000       12.0110           0
      1469 MEMB     11       POPC     H15X     HAL2     0.900000E-01   1.00800           0
      1470 MEMB     11       POPC     H15Y     HAL2     0.900000E-01   1.00800           0
      1471 MEMB     11       POPC     C316     CTL3    -0.270000       12.0110           0
      1472 MEMB     11       POPC     H16X     HAL3     0.900000E-01   1.00800           0
      1473 MEMB     11       POPC     H16Y     HAL3     0.900000E-01   1.00800           0
      1474 MEMB     11       POPC     H16Z     HAL3     0.900000E-01   1.00800           0
      1475 MEMB     12       POPC     N        NTL     -0.600000       14.0070           0
      1476 MEMB     12       POPC     C12      CTL2    -0.100000       12.0110           0
      1477 MEMB     12       POPC     H12A     HL       0.250000       1.00800           0
      1478 MEMB     12       POPC     H12B     HL       0.250000       1.00800           0
      1479 MEMB     12       POPC     C13      CTL5    -0.350000       12.0110           0
      1480 MEMB     12       POPC     H13A     HL       0.250000       1.00800           0
      1481 MEMB     12       POPC     H13B     HL       0.250000       1.00800           0
      1482 MEMB     12       POPC     H13C     HL       0.250000       1.00800           0
      1483 MEMB     12       POPC     C14      CTL5    -0.350000       12.0110           0
      1484 MEMB     12       POPC     H14A     HL       0.250000       1.00800           0
      1485 MEMB     12       POPC     H14B     HL       0.250000       1.00800           0
      1486 MEMB     12       POPC     H14C     HL       0.250000       1.00800           0
      1487 MEMB     12       POPC     C15      CTL5    -0.350000       12.0110           0
      1488 MEMB     12       POPC     H15A     HL       0.250000       1.00800           0
      1489 MEMB     12       POPC     H15B     HL       0.250000       1.00800           0
      1490 MEMB     12       POPC     H15C     HL       0.250000       1.00800           0
      1491 MEMB     12       POPC     C11      CTL2    -0.800000E-01   12.0110           0
      1492 MEMB     12       POPC     H11A     HAL2     0.900000E-01   1.00800           0
      1493 MEMB     12       POPC     H11B     HAL2     0.900000E-01   1.00800           0
      1494 MEMB     12       POPC     P        PL        1.50000       30.9740           0
      1495 MEMB     12       POPC     O13      O2L     -0.780000       15.9994           0
      1496 MEMB     12       POPC     O14      O2L     -0.780000       15.9994           0
      1497 MEMB     12       POPC     O12      OSLP    -0.570000       15.9994           0
      1498 MEMB     12       POPC     O11      OSLP    -0.570000       15.9994           0
      1499 MEMB     12       POPC     C1       CTL2    -0.800000E-01   12.0110           0
      1500 MEMB     12       POPC     HA       HAL2     0.900000E-01   1.00800           0
      1501 MEMB     12       POPC     HB       HAL2     0.900000E-01   1.00800           0
      1502 MEMB     12       POPC     C2       CTL1     0.170000       12.0110           0
      1503 MEMB     12       POPC     HS       HAL1     0.900000E-01   1.00800           0
      1504 MEMB     12       POPC     O21      OSL     -0.490000       15.9994           0
      1505 MEMB     12       POPC     C21      CL       0.900000       12.0110           0
      1506 MEMB     12       POPC     O22      OBL     -0.630000       15.9994           0
      1507 MEMB     12       POPC     C22      CTL2    -0.220000       12.0110           0
      1508 MEMB     12       POPC     H2R      HAL2     0.900000E-01   1.00800           0
      1509 MEMB     12       POPC     H2S      HAL2     0.900000E-01   1.00800           0
      1510 MEMB     12       POPC     C3       CTL2     0.800000E-01   12.0110           0
      1511 MEMB     12       POPC     HX       HAL2     0.900000E-01   1.00800           0
      1512 MEMB     12       POPC     HY       HAL2     0.900000E-01   1.00800           0
      1513 MEMB     12       POPC     O31      OSL     -0.490000       15.9994           0
      1514 MEMB     12       POPC     C31      CL       0.900000       12.0110           0
      1515 MEMB     12       POPC     O32      OBL     -0.630000       15.9994           0
      1516 MEMB     12       POPC     C32      CTL2    -0.220000       12.0110           0
      1517 MEMB     12       POPC     H2X      HAL2     0.900000E-01   1.00800           0
      1518 MEMB     12       POPC     H2Y      HAL2     0.900000E-01   1.00800           0
      1519 MEMB     12       POPC     C23      CTL2    -0.180000       12.0110           0
      1520 MEMB     12       POPC     H3R      HAL2     0.900000E-01   1.00800           0
      1521 MEMB     12       POPC     H3S      HAL2     0.900000E-01   1.00800           0
      1522 MEMB     12       POPC     C24      CTL2    -0.180000       12.0110           0
      1523 MEMB     12       POPC     H4R      HAL2     0.900000E-01   1.00800           0
      1524 MEMB     12       POPC     H4S      HAL2     0.900000E-01   1.00800           0
      1525 MEMB     12       POPC     C25      CTL2    -0.180000       12.0110           0
      1526 MEMB     12       POPC     H5R      HAL2     0.900000E-01   1.00800           0
      1527 MEMB     12       POPC     H5S      HAL2     0.900000E-01   1.00800           0
      1528 MEMB     12       POPC     C26      CTL2    -0.180000       12.0110           0
      1529 MEMB     12       POPC     H6R      HAL2     0.900000E-01   1.00800           0
      1530 MEMB     12       POPC     H6S      HAL2     0.900000E-01   1.00800           0
      1531 MEMB     12       POPC     C27      CTL2    -0.180000       12.0110           0
      1532 MEMB     12       POPC     H7R      HAL2     0.900000E-01   1.00800           0
      1533 MEMB     12       POPC     H7S      HAL2     0.900000E-01   1.00800           0
      1534 MEMB     12       POPC     C28      CTL2    -0.180000       12.0110           0
      1535 MEMB     12       POPC     H8R      HAL2     0.900000E-01   1.00800           0
      1536 MEMB     12       POPC     H8S      HAL2     0.900000E-01   1.00800           0
      1537 MEMB     12       POPC     C29      CEL1    -0.150000       12.0110           0
      1538 MEMB     12       POPC     H91      HEL1     0.150000       1.00800           0
      1539 MEMB     12       POPC     C210     CEL1    -0.150000       12.0110           0
      1540 MEMB     12       POPC     H101     HEL1     0.150000       1.00800           0
      1541 MEMB     12       POPC     C211     CTL2    -0.180000       12.0110           0
      1542 MEMB     12       POPC     H11R     HAL2     0.900000E-01   1.00800           0
      1543 MEMB     12       POPC     H11S     HAL2     0.900000E-01   1.00800           0
      1544 MEMB     12       POPC     C212     CTL2    -0.180000       12.0110           0
      1545 MEMB     12       POPC     H12R     HAL2     0.900000E-01   1.00800           0
      1546 MEMB     12       POPC     H12S     HAL2     0.900000E-01   1.00800           0
      1547 MEMB     12       POPC     C213     CTL2    -0.180000       12.0110           0
      1548 MEMB     12       POPC     H13R     HAL2     0.900000E-01   1.00800           0
      1549 MEMB     12       POPC     H13S     HAL2     0.900000E-01   1.00800           0
      1550 MEMB     12       POPC     C214     CTL2    -0.180000       12.0110           0
      1551 MEMB     12       POPC     H14R     HAL2     0.900000E-01   1.00800           0
      1552 MEMB     12       POPC     H14S     HAL2     0.900000E-01   1.00800           0
      1553 MEMB     12       POPC     C215     CTL2    -0.180000       12.0110           0
      1554 MEMB     12       POPC     H15R     HAL2     0.900000E-01   1.00800           0
      1555 MEMB     12       POPC     H15S     HAL2     0.900000E-01   1.00800           0
      1556 MEMB     12       POPC     C216     CTL2    -0.180000       12.0110           0
      1557 MEMB     12       POPC     H16R     HAL2     0.900000E-01   1.00800           0
      1558 MEMB     12       POPC     H16S     HAL2     0.900000E-01   1.00800           0
      1559 MEMB     12       POPC     C217     CTL2    -0.180000       12.0110           0
      1560 MEMB     12       POPC     H17R     HAL2     0.900000E-01   1.00800           0
      1561 MEMB     12       POPC     H17S     HAL2     0.900000E-01   1.00800           0
      1562 MEMB     12       POPC     C218     CTL3    -0.270000       12.0110           0
      1563 MEMB     12       POPC     H18R     HAL3     0.900000E-01   1.00800           0
      1564 MEMB     12       POPC     H18S     HAL3     0.900000E-01   1.00800           0
      1565 MEMB     12       POPC     H18T     HAL3     0.900000E-01   1.00800           0
      1566 MEMB     12       POPC     C33      CTL2    -0.180000       12.0110           0
      1567 MEMB     12       POPC     H3X      HAL2     0.900000E-01   1.00800           0
      1568 MEMB     12       POPC     H3Y      HAL2     0.900000E-01   1.00800           0
      1569 MEMB     12       POPC     C34      CTL2    -0.180000       12.0110           0
      1570 MEMB     12       POPC     H4X      HAL2     0.900000E-01   1.00800           0
      1571 MEMB     12       POPC     H4Y      HAL2     0.900000E-01   1.00800           0
      1572 MEMB     12       POPC     C35      CTL2    -0.180000       12.0110           0
      1573 MEMB     12       POPC     H5X      HAL2     0.900000E-01   1.00800           0
      1574 MEMB     12       POPC     H5Y      HAL2     0.900000E-01   1.00800           0
      1575 MEMB     12       POPC     C36      CTL2    -0.180000       12.0110           0
      1576 MEMB     12       POPC     H6X      HAL2     0.900000E-01   1.00800           0
      1577 MEMB     12       POPC     H6Y      HAL2     0.900000E-01   1.00800           0
      1578 MEMB     12       POPC     C37      CTL2    -0.180000       12.0110           0
      1579 MEMB     12       POPC     H7X      HAL2     0.900000E-01   1.00800           0
      1580 MEMB     12       POPC     H7Y      HAL2     0.900000E-01   1.00800           0
      1581 MEMB     12       POPC     C38      CTL2    -0.180000       12.0110           0
      1582 MEMB     12       POPC     H8X      HAL2     0.900000E-01   1.00800           0
      1583 MEMB     12       POPC     H8Y      HAL2     0.900000E-01   1.00800           0
      1584 MEMB     12       POPC     C39      CTL2    -0.180000       12.0110           0
      1585 MEMB     12       POPC     H9X      HAL2     0.900000E-01   1.00800           0
      1586 MEMB     12       POPC     H9Y      HAL2     0.900000E-01   1.00800           0
      1587 MEMB     12       POPC     C310     CTL2    -0.180000       12.0110           0
      1588 MEMB     12       POPC     H10X     HAL2     0.900000E-01   1.00800           0
      1589 MEMB     12       POPC     H10Y     HAL2     0.900000E-01   1.00800           0
      1590 MEMB     12       POPC     C311     CTL2    -0.180000       12.0110           0
      1591 MEMB     12       POPC     H11X     HAL2     0.900000E-01   1.00800           0
      1592 MEMB     12       POPC     H11Y     HAL2     0.900000E-01   1.00800           0
      1593 MEMB     12       POPC     C312     CTL2    -0.180000       12.0110           0
      1594 MEMB     12       POPC     H12X     HAL2     0.900000E-01   1.00800           0
      1595 MEMB     12       POPC     H12Y     HAL2     0.900000E-01   1.00800           0
      1596 MEMB     12       POPC     C313     CTL2    -0.180000       12.0110           0
      1597 MEMB     12       POPC     H13X     HAL2     0.900000E-01   1.00800           0
      1598 MEMB     12       POPC     H13Y     HAL2     0.900000E-01   1.00800           0
      1599 MEMB     12       POPC     C314     CTL2    -0.180000       12.0110           0
      1600 MEMB     12       POPC     H14X     HAL2     0.900000E-01   1.00800           0
      1601 MEMB     12       POPC     H14Y     HAL2     0.900000E-01   1.00800           0
      1602 MEMB     12       POPC     C315     CTL2    -0.180000       12.0110           0
      1603 MEMB     12       POPC     H15X     HAL2     0.900000E-01   1.00800           0
      1604 MEMB     12       POPC     H15Y     HAL2     0.900000E-01   1.00800           0
      1605 MEMB     12       POPC     C316     CTL3    -0.270000       12.0110           0
      1606 MEMB     12       POPC     H16X     HAL3     0.900000E-01   1.00800           0
      1607 MEMB     12       POPC     H16Y     HAL3     0.900000E-01   1.00800           0
      1608 MEMB     12       POPC     H16Z     HAL3     0.900000E-01   1.00800           0
      1609 MEMB     13       POPC     N        NTL     -0.600000       14.0070           0
      1610 MEMB     13       POPC     C12      CTL2    -0.100000       12.0110           0
      1611 MEMB     13       POPC     H12A     HL       0.250000       1.00800           0
      1612 MEMB     13       POPC     H12B     HL       0.250000       1.00800           0
      1613 MEMB     13       POPC     C13      CTL5    -0.350000       12.0110           0
      1614 MEMB     13       POPC     H13A     HL       0.250000       1.00800           0
      1615 MEMB     13       POPC     H13B     HL       0.250000       1.00800           0
      1616 MEMB     13       POPC     H13C     HL       0.250000       1.00800           0
      1617 MEMB     13       POPC     C14      CTL5    -0.350000       12.0110           0
      1618 MEMB     13       POPC     H14A     HL       0.250000       1.00800           0
      1619 MEMB     13       POPC     H14B     HL       0.250000       1.00800           0
      1620 MEMB     13       POPC     H14C     HL       0.250000       1.00800           0
      1621 MEMB     13       POPC     C15      CTL5    -0.350000       12.0110           0
      1622 MEMB     13       POPC     H15A     HL       0.250000       1.00800           0
      1623 MEMB     13       POPC     H15B     HL       0.250000       1.00800           0
      1624 MEMB     13       POPC     H15C     HL       0.250000       1.00800           0
      1625 MEMB     13       POPC     C11      CTL2    -0.800000E-01   12.0110           0
      1626 MEMB     13       POPC     H11A     HAL2     0.900000E-01   1.00800           0
      1627 MEMB     13       POPC     H11B     HAL2     0.900000E-01   1.00800           0
      1628 MEMB     13       POPC     P        PL        1.50000       30.9740           0
      1629 MEMB     13       POPC     O13      O2L     -0.780000       15.9994           0
      1630 MEMB     13       POPC     O14      O2L     -0.780000       15.9994           0
      1631 MEMB     13       POPC     O12      OSLP    -0.570000       15.9994           0
      1632 MEMB     13       POPC     O11      OSLP    -0.570000       15.9994           0
      1633 MEMB     13       POPC     C1       CTL2    -0.800000E-01   12.0110           0
      1634 MEMB     13       POPC     HA       HAL2     0.900000E-01   1.00800           0
      1635 MEMB     13       POPC     HB       HAL2     0.900000E-01   1.00800           0
      1636 MEMB     13       POPC     C2       CTL1     0.170000       12.0110           0
      1637 MEMB     13       POPC     HS       HAL1     0.900000E-01   1.00800           0
      1638 MEMB     13       POPC     O21      OSL     -0.490000       15.9994           0
      1639 MEMB     13       POPC     C21      CL       0.900000       12.0110           0
      1640 MEMB     13       POPC     O22      OBL     -0.630000       15.9994           0
      1641 MEMB     13       POPC     C22      CTL2    -0.220000       12.0110           0
      1642 MEMB     13       POPC     H2R      HAL2     0.900000E-01   1.00800           0
      1643 MEMB     13       POPC     H2S      HAL2     0.900000E-01   1.00800           0
      1644 MEMB     13       POPC     C3       CTL2     0.800000E-01   12.0110           0
      1645 MEMB     13       POPC     HX       HAL2     0.900000E-01   1.00800           0
      1646 MEMB     13       POPC     HY       HAL2     0.900000E-01   1.00800           0
      1647 MEMB     13       POPC     O31      OSL     -0.490000       15.9994           0
      1648 MEMB     13       POPC     C31      CL       0.900000       12.0110           0
      1649 MEMB     13       POPC     O32      OBL     -0.630000       15.9994           0
      1650 MEMB     13       POPC     C32      CTL2    -0.220000       12.0110           0
      1651 MEMB     13       POPC     H2X      HAL2     0.900000E-01   1.00800           0
      1652 MEMB     13       POPC     H2Y      HAL2     0.900000E-01   1.00800           0
      1653 MEMB     13       POPC     C23      CTL2    -0.180000       12.0110           0
      1654 MEMB     13       POPC     H3R      HAL2     0.900000E-01   1.00800           0
      1655 MEMB     13       POPC     H3S      HAL2     0.900000E-01   1.00800           0
      1656 MEMB     13       POPC     C24      CTL2    -0.180000       12.0110           0
      1657 MEMB     13       POPC     H4R      HAL2     0.900000E-01   1.00800           0
      1658 MEMB     13       POPC     H4S      HAL2     0.900000E-01   1.00800           0
      1659 MEMB     13       POPC     C25      CTL2    -0.180000       12.0110           0
      1660 MEMB     13       POPC     H5R      HAL2     0.900000E-01   1.00800           0
      1661 MEMB     13       POPC     H5S      HAL2     0.900000E-01   1.00800           0
      1662 MEMB     13       POPC     C26      CTL2    -0.180000       12.0110           0
      1663 MEMB     13       POPC     H6R      HAL2     0.900000E-01   1.00800           0
      1664 MEMB     13       POPC     H6S      HAL2     0.900000E-01   1.00800           0
      1665 MEMB     13       POPC     C27      CTL2    -0.180000       12.0110           0
      1666 MEMB     13       POPC     H7R      HAL2     0.900000E-01   1.00800           0
      1667 MEMB     13       POPC     H7S      HAL2     0.900000E-01   1.00800           0
      1668 MEMB     13       POPC     C28      CTL2    -0.180000       12.0110           0
      1669 MEMB     13       POPC     H8R      HAL2     0.900000E-01   1.00800           0
      1670 MEMB     13       POPC     H8S      HAL2     0.900000E-01   1.00800           0
      1671 MEMB     13       POPC     C29      CEL1    -0.150000       12.0110           0
      1672 MEMB     13       POPC     H91      HEL1     0.150000       1.00800           0
      1673 MEMB     13       POPC     C210     CEL1    -0.150000       12.0110           0
      1674 MEMB     13       POPC     H101     HEL1     0.150000       1.00800           0
      1675 MEMB     13       POPC     C211     CTL2    -0.180000       12.0110           0
      1676 MEMB     13       POPC     H11R     HAL2     0.900000E-01   1.00800           0
      1677 MEMB     13       POPC     H11S     HAL2     0.900000E-01   1.00800           0
      1678 MEMB     13       POPC     C212     CTL2    -0.180000       12.0110           0
      1679 MEMB     13       POPC     H12R     HAL2     0.900000E-01   1.00800           0
      1680 MEMB     13       POPC     H12S     HAL2     0.900000E-01   1.00800           0
      1681 MEMB     13       POPC     C213     CTL2    -0.180000       12.0110           0
      1682 MEMB     13       POPC     H13R     HAL2     0.900000E-01   1.00800           0
      1683 MEMB     13       POPC     H13S     HAL2     0.900000E-01   1.00800           0
      1684 MEMB     13       POPC     C214     CTL2    -0.180000       12.0110           0
      1685 MEMB     13       POPC     H14R     HAL2     0.900000E-01   1.00800           0
      1686 MEMB     13       POPC     H14S     HAL2     0.900000E-01   1.00800           0
      1687 MEMB     13       POPC     C215     CTL2    -0.180000       12.0110           0
      1688 MEMB     13       POPC     H15R     HAL2     0.900000E-01   1.00800           0
      1689 MEMB     13       POPC     H15S     HAL2     0.900000E-01   1.00800           0
      1690 MEMB     13       POPC     C216     CTL2    -0.180000       12.0110           0
      1691 MEMB     13       POPC     H16R     HAL2     0.900000E-01   1.00800           0
      1692 MEMB     13       POPC     H16S     HAL2     0.900000E-01   1.00800           0
      1693 MEMB     13       POPC     C217     CTL2    -0.180000       12.0110           0
      1694 MEMB     13       POPC     H17R     HAL2     0.900000E-01   1.00800           0
      1695 MEMB     13       POPC     H17S     HAL2     0.900000E-01   1.00800           0
      1696 MEMB     13       POPC     C218     CTL3    -0.270000       12.0110           0
      1697 MEMB     13       POPC     H18R     HAL3     0.900000E-01   1.00800           0
      1698 MEMB     13       POPC     H18S     HAL3     0.900000E-01   1.00800           0
      1699 MEMB     13       POPC     H18T     HAL3     0.900000E-01   1.00800           0
      1700 MEMB     13       POPC     C33      CTL2    -0.180000       12.0110           0
      1701 MEMB     13       POPC     H3X      HAL2     0.900000E-01   1.00800           0
      1702 MEMB     13       POPC     H3Y      HAL2     0.900000E-01   1.00800           0
      1703 MEMB     13       POPC     C34      CTL2    -0.180000       12.0110           0
      1704 MEMB     13       POPC     H4X      HAL2     0.900000E-01   1.00800           0
      1705 MEMB     13       POPC     H4Y      HAL2     0.900000E-01   1.00800           0
      1706 MEMB     13       POPC     C35      CTL2    -0.180000       12.0110           0
      1707 MEMB     13       POPC     H5X      HAL2     0.900000E-01   1.00800           0
      1708 MEMB     13       POPC     H5Y      HAL2     0.900000E-01   1.00800           0
      1709 MEMB     13       POPC     C36      CTL2    -0.180000       12.0110           0
      1710 MEMB     13       POPC     H6X      HAL2     0.900000E-01   1.00800           0
      1711 MEMB     13       POPC     H6Y      HAL2     0.900000E-01   1.00800           0
      1712 MEMB     13       POPC     C37      CTL2    -0.180000       12.0110           0
      1713 MEMB     13       POPC     H7X      HAL2     0.900000E-01   1.00800           0
      1714 MEMB     13       POPC     H7Y      HAL2     0.900000E-01   1.00800           0
      1715 MEMB     13       POPC     C38      CTL2    -0.180000       12.0110           0
      1716 MEMB     13       POPC     H8X      HAL2     0.900000E-01   1.00800           0
      1717 MEMB     13       POPC     H8Y      HAL2     0.900000E-01   1.00800           0
      1718 MEMB     13       POPC     C39      CTL2    -0.180000       12.0110           0
      1719 MEMB     13       POPC     H9X      HAL2     0.900000E-01   1.00800           0
      1720 MEMB     13       POPC     H9Y      HAL2     0.900000E-01   1.00800           0
      1721 MEMB     13       POPC     C310     CTL2    -0.180000       12.0110           0
      1722 MEMB     13       POPC     H10X     HAL2     0.900000E-01   1.00800           0
      1723 MEMB     13       POPC     H10Y     HAL2     0.900000E-01   1.00800           0
      1724 MEMB     13       POPC     C311     CTL2    -0.180000       12.0110           0
      1725 MEMB     13       POPC     H11X     HAL2     0.900000E-01   1.00800           0
      1726 MEMB     13       POPC     H11Y     HAL2     0.900000E-01   1.00800           0
      1727 MEMB     13       POPC     C312     CTL2    -0.180000       12.0110           0
      1728 MEMB     13       POPC     H12X     HAL2     0.900000E-01   1.00800           0
      1729 MEMB     13       POPC     H12Y     HAL2     0.900000E-01   1.00800           0
      1730 MEMB     13       POPC     C313     CTL2    -0.180000       12.0110           0
      1731 MEMB     13       POPC     H13X     HAL2     0.900000E-01   1.00800           0
      1732 MEMB     13       POPC     H13Y     HAL2     0.900000E-01   1.00800           0
      1733 MEMB     13       POPC     C314     CTL2    -0.180000       12.0110           0
      1734 MEMB     13       POPC     H14X     HAL2     0.900000E-01   1.00800           0
      1735 MEMB     13       POPC     H14Y     HAL2     0.900000E-01   1.00800           0
      1736 MEMB     13       POPC     C315     CTL2    -0.180000       12.0110           0
      1737 MEMB     13       POPC     H15X     HAL2     0.900000E-01   1.00800           0
      1738 MEMB     13       POPC     H15Y     HAL2     0.900000E-01   1.00800           0
      1739 MEMB     13       POPC     C316     CTL3    -0.270000       12.0110           0
      1740 MEMB     13       POPC     H16X     HAL3     0.900000E-01   1.00800           0
      1741 MEMB     13       POPC     H16Y     HAL3     0.900000E-01   1.00800           0
      1742 MEMB     13       POPC     H16Z     HAL3     0.900000E-01   1.00800           0
      1743 MEMB     14       POPC     N        NTL     -0.600000       14.0070           0
      1744 MEMB     14       POPC     C12      CTL2    -0.100000       12.0110           0
      1745 MEMB     14       POPC     H12A     HL       0.250000       1.00800           0
      1746 MEMB     14       POPC     H12B     HL       0.250000       1.00800           0
      1747 MEMB     14       POPC     C13      CTL5    -0.350000       12.0110           0
      1748 MEMB     14       POPC     H13A     HL       0.250000       1.00800           0
      1749 MEMB     14       POPC     H13B     HL       0.250000       1.00800           0
      1750 MEMB     14       POPC     H13C     HL       0.250000       1.00800           0
      1751 MEMB     14       POPC     C14      CTL5    -0.350000       12.0110           0
      1752 MEMB     14       POPC     H14A     HL       0.250000       1.00800           0
      1753 MEMB     14       POPC     H14B     HL       0.250000       1.00800           0
      1754 MEMB     14       POPC     H14C     HL       0.250000       1.00800           0
      1755 MEMB     14       POPC     C15      CTL5    -0.350000       12.0110           0
      1756 MEMB     14       POPC     H15A     HL       0.250000       1.00800           0
      1757 MEMB     14       POPC     H15B     HL       0.250000       1.00800           0
      1758 MEMB     14       POPC     H15C     HL       0.250000       1.00800           0
      1759 MEMB     14       POPC     C11      CTL2    -0.800000E-01   12.0110           0
      1760 MEMB     14       POPC     H11A     HAL2     0.900000E-01   1.00800           0
      1761 MEMB     14       POPC     H11B     HAL2     0.900000E-01   1.00800           0
      1762 MEMB     14       POPC     P        PL        1.50000       30.9740           0
      1763 MEMB     14       POPC     O13      O2L     -0.780000       15.9994           0
      1764 MEMB     14       POPC     O14      O2L     -0.780000       15.9994           0
      1765 MEMB     14       POPC     O12      OSLP    -0.570000       15.9994           0
      1766 MEMB     14       POPC     O11      OSLP    -0.570000       15.9994           0
      1767 MEMB     14       POPC     C1       CTL2    -0.800000E-01   12.0110           0
      1768 MEMB     14       POPC     HA       HAL2     0.900000E-01   1.00800           0
      1769 MEMB     14       POPC     HB       HAL2     0.900000E-01   1.00800           0
      1770 MEMB     14       POPC     C2       CTL1     0.170000       12.0110           0
      1771 MEMB     14       POPC     HS       HAL1     0.900000E-01   1.00800           0
      1772 MEMB     14       POPC     O21      OSL     -0.490000       15.9994           0
      1773 MEMB     14       POPC     C21      CL       0.900000       12.0110           0
      1774 MEMB     14       POPC     O22      OBL     -0.630000       15.9994           0
      1775 MEMB     14       POPC     C22      CTL2    -0.220000       12.0110           0
      1776 MEMB     14       POPC     H2R      HAL2     0.900000E-01   1.00800           0
      1777 MEMB     14       POPC     H2S      HAL2     0.900000E-01   1.00800           0
      1778 MEMB     14       POPC     C3       CTL2     0.800000E-01   12.0110           0
      1779 MEMB     14       POPC     HX       HAL2     0.900000E-01   1.00800           0
      1780 MEMB     14       POPC     HY       HAL2     0.900000E-01   1.00800           0
      1781 MEMB     14       POPC     O31      OSL     -0.490000       15.9994           0
      1782 MEMB     14       POPC     C31      CL       0.900000       12.0110           0
      1783 MEMB     14       POPC     O32      OBL     -0.630000       15.9994           0
      1784 MEMB     14       POPC     C32      CTL2    -0.220000       12.0110           0
      1785 MEMB     14       POPC     H2X      HAL2     0.900000E-01   1.00800           0
      1786 MEMB     14       POPC     H2Y      HAL2     0.900000E-01   1.00800           0
      1787 MEMB     14       POPC     C23      CTL2    -0.180000       12.0110           0
      1788 MEMB     14       POPC     H3R      HAL2     0.900000E-01   1.00800           0
      1789 MEMB     14       POPC     H3S      HAL2     0.900000E-01   1.00800           0
      1790 MEMB     14       POPC     C24      CTL2    -0.180000       12.0110           0
      1791 MEMB     14       POPC     H4R      HAL2     0.900000E-01   1.00800           0
      1792 MEMB     14       POPC     H4S      HAL2     0.900000E-01   1.00800           0
      1793 MEMB     14       POPC     C25      CTL2    -0.180000       12.0110           0
      1794 MEMB     14       POPC     H5R      HAL2     0.900000E-01   1.00800           0
      1795 MEMB     14       POPC     H5S      HAL2     0.900000E-01   1.00800           0
      1796 MEMB     14       POPC     C26      CTL2    -0.180000       12.0110           0
      1797 MEMB     14       POPC     H6R      HAL2     0.900000E-01   1.00800           0
      1798 MEMB     14       POPC     H6S      HAL2     0.900000E-01   1.00800           0
      1799 MEMB     14       POPC     C27      CTL2    -0.180000       12.0110           0
      1800 MEMB     14       POPC     H7R      HAL2     0.900000E-01   1.00800           0
      1801 MEMB     14       POPC     H7S      HAL2     0.900000E-01   1.00800           0
      1802 MEMB     14       POPC     C28      CTL2    -0.180000       12.0110           0
      1803 MEMB     14       POPC     H8R      HAL2     0.900000E-01   1.00800           0
      1804 MEMB     14       POPC     H8S      HAL2     0.900000E-01   1.00800           0
      1805 MEMB     14       POPC     C29      CEL1    -0.150000       12.0110           0
      1806 MEMB     14       POPC     H91      HEL1     0.150000       1.00800           0
      1807 MEMB     14       POPC     C210     CEL1    -0.150000       12.0110           0
      1808 MEMB     14       POPC     H101     HEL1     0.150000       1.00800           0
      1809 MEMB     14       POPC     C211     CTL2    -0.180000       12.0110           0
      1810 MEMB     14       POPC     H11R     HAL2     0.900000E-01   1.00800           0
      1811 MEMB     14       POPC     H11S     HAL2     0.900000E-01   1.00800           0
      1812 MEMB     14       POPC     C212     CTL2    -0.180000       12.0110           0
      1813 MEMB     14       POPC     H12R     HAL2     0.900000E-01   1.00800           0
      1814 MEMB     14       POPC     H12S     HAL2     0.900000E-01   1.00800           0
      1815 MEMB     14       POPC     C213     CTL2    -0.180000       12.0110           0
      1816 MEMB     14       POPC     H13R     HAL2     0.900000E-01   1.00800           0
      1817 MEMB     14       POPC     H13S     HAL2     0.900000E-01   1.00800           0
      1818 MEMB     14       POPC     C214     CTL2    -0.180000       12.0110           0
      1819 MEMB     14       POPC     H14R     HAL2     0.900000E-01   1.00800           0
      1820 MEMB     14       POPC     H14S     HAL2     0.900000E-01   1.00800           0
      1821 MEMB     14       POPC     C215     CTL2    -0.180000       12.0110           0
      1822 MEMB     14       POPC     H15R     HAL2     0.900000E-01   1.00800           0
      1823 MEMB     14       POPC     H15S     HAL2     0.900000E-01   1.00800           0
      1824 MEMB     14       POPC     C216     CTL2    -0.180000       12.0110           0
      1825 MEMB     14       POPC     H16R     HAL2     0.900000E-01   1.00800           0
      1826 MEMB     14       POPC     H16S     HAL2     0.900000E-01   1.00800           0
      1827 MEMB     14       POPC     C217     CTL2    -0.180000       12.0110           0
      1828 MEMB     14       POPC     H17R     HAL2     0.900000E-01   1.00800           0
      1829 MEMB     14       POPC     H17S     HAL2     0.900000E-01   1.00800           0
      1830 MEMB     14       POPC     C218     CTL3    -0.270000       12.0110           0
      1831 MEMB     14       POPC     H18R     HAL3     0.900000E-01   1.00800           0
      1832 MEMB     14       POPC     H18S     HAL3     0.900000E-01   1.00800           0
      1833 MEMB     14       POPC     H18T     HAL3     0.900000E-01   1.00800           0
      1834 MEMB     14       POPC     C33      CTL2    -0.180000       12.0110           0
      1835 MEMB     14       POPC     H3X      HAL2     0.900000E-01   1.00800           0
      1836 MEMB     14       POPC     H3Y      HAL2     0.900000E-01   1.00800           0
      1837 MEMB     14       POPC     C34      CTL2    -0.180000       12.0110           0
      1838 MEMB     14       POPC     H4X      HAL2     0.900000E-01   1.00800           0
      1839 MEMB     14       POPC     H4Y      HAL2     0.900000E-01   1.00800           0
      1840 MEMB     14       POPC     C35      CTL2    -0.180000       12.0110           0
      1841 MEMB     14       POPC     H5X      HAL2     0.900000E-01   1.00800           0
      1842 MEMB     14       POPC     H5Y      HAL2     0.900000E-01   1.00800           0
      1843 MEMB     14       POPC     C36      CTL2    -0.180000       12.0110           0
      1844 MEMB     14       POPC     H6X      HAL2     0.900000E-01   1.00800           0
      1845 MEMB     14       POPC     H6Y      HAL2     0.900000E-01   1.00800           0
      1846 MEMB     14       POPC     C37      CTL2    -0.180000       12.0110           0
      1847 MEMB     14       POPC     H7X      HAL2     0.900000E-01   1.00800           0
      1848 MEMB     14       POPC     H7Y      HAL2     0.900000E-01   1.00800           0
      1849 MEMB     14       POPC     C38      CTL2    -0.180000       12.0110           0
      1850 MEMB     14       POPC     H8X      HAL2     0.900000E-01   1.00800           0
      1851 MEMB     14       POPC     H8Y      HAL2     0.900000E-01   1.00800           0
      1852 MEMB     14       POPC     C39      CTL2    -0.180000       12.0110           0
      1853 MEMB     14       POPC     H9X      HAL2     0.900000E-01   1.00800           0
      1854 MEMB     14       POPC     H9Y      HAL2     0.900000E-01   1.00800           0
      1855 MEMB     14       POPC     C310     CTL2    -0.180000       12.0110           0
      1856 MEMB     14       POPC     H10X     HAL2     0.900000E-01   1.00800           0
      1857 MEMB     14       POPC     H10Y     HAL2     0.900000E-01   1.00800           0
      1858 MEMB     14       POPC     C311     CTL2    -0.180000       12.0110           0
      1859 MEMB     14       POPC     H11X     HAL2     0.900000E-01   1.00800           0
      1860 MEMB     14       POPC     H11Y     HAL2     0.900000E-01   1.00800           0
      1861 MEMB     14       POPC     C312     CTL2    -0.180000       12.0110           0
      1862 MEMB     14       POPC     H12X     HAL2     0.900000E-01   1.00800           0
      1863 MEMB     14       POPC     H12Y     HAL2     0.900000E-01   1.00800           0
      1864 MEMB     14       POPC     C313     CTL2    -0.180000       12.0110           0
      1865 MEMB     14       POPC     H13X     HAL2     0.900000E-01   1.00800           0
      1866 MEMB     14       POPC     H13Y     HAL2     0.900000E-01   1.00800           0
      1867 MEMB     14       POPC     C314     CTL2    -0.180000       12.0110           0
      1868 MEMB     14       POPC     H14X     HAL2     0.900000E-01   1.00800           0
      1869 MEMB     14       POPC     H14Y     HAL2     0.900000E-01   1.00800           0
      1870 MEMB     14       POPC     C315     CTL2    -0.180000       12.0110           0
      1871 MEMB     14       POPC     H15X     HAL2     0.900000E-01   1.00800           0
      1872 MEMB     14       POPC     H15Y     HAL2     0.900000E-01   1.00800           0
      1873 MEMB     14       POPC     C316     CTL3    -0.270000       12.0110           0
      1874 MEMB     14       POPC     H16X     HAL3     0.900000E-01   1.00800           0
      1875 MEMB     14       POPC     H16Y     HAL3     0.900000E-01   1.00800           0
      1876 MEMB     14       POPC     H16Z     HAL3     0.900000E-01   1.00800           0
      1877 MEMB     15       POPC     N        NTL     -0.600000       14.0070           0
      1878 MEMB     15       POPC     C12      CTL2    -0.100000       12.0110           0
      1879 MEMB     15       POPC     H12A     HL       0.250000       1.00800           0
      1880 MEMB     15       POPC     H12B     HL       0.250000       1.00800           0
      1881 MEMB     15       POPC     C13      CTL5    -0.350000       12.0110           0
      1882 MEMB     15       POPC     H13A     HL       0.250000       1.00800           0
      1883 MEMB     15       POPC     H13B     HL       0.250000       1.00800           0
      1884 MEMB     15       POPC     H13C     HL       0.250000       1.00800           0
      1885 MEMB     15       POPC     C14      CTL5    -0.350000       12.0110           0
      1886 MEMB     15       POPC     H14A     HL       0.250000       1.00800           0
      1887 MEMB     15       POPC     H14B     HL       0.250000       1.00800           0
      1888 MEMB     15       POPC     H14C     HL       0.250000       1.00800           0
      1889 MEMB     15       POPC     C15      CTL5    -0.350000       12.0110           0
      1890 MEMB     15       POPC     H15A     HL       0.250000       1.00800           0
      1891 MEMB     15       POPC     H15B     HL       0.250000       1.00800           0
      1892 MEMB     15       POPC     H15C     HL       0.250000       1.00800           0
      1893 MEMB     15       POPC     C11      CTL2    -0.800000E-01   12.0110           0
      1894 MEMB     15       POPC     H11A     HAL2     0.900000E-01   1.00800           0
      1895 MEMB     15       POPC     H11B     HAL2     0.900000E-01   1.00800           0
      1896 MEMB     15       POPC     P        PL        1.50000       30.9740           0
      1897 MEMB     15       POPC     O13      O2L     -0.780000       15.9994           0
      1898 MEMB     15       POPC     O14      O2L     -0.780000       15.9994           0
      1899 MEMB     15       POPC     O12      OSLP    -0.570000       15.9994           0
      1900 MEMB     15       POPC     O11      OSLP    -0.570000       15.9994           0
      1901 MEMB     15       POPC     C1       CTL2    -0.800000E-01   12.0110           0
      1902 MEMB     15       POPC     HA       HAL2     0.900000E-01   1.00800           0
      1903 MEMB     15       POPC     HB       HAL2     0.900000E-01   1.00800           0
      1904 MEMB     15       POPC     C2       CTL1     0.170000       12.0110           0
      1905 MEMB     15       POPC     HS       HAL1     0.900000E-01   1.00800           0
      1906 MEMB     15       POPC     O21      OSL     -0.490000       15.9994           0
      1907 MEMB     15       POPC     C21      CL       0.900000       12.0110           0
      1908 MEMB     15       POPC     O22      OBL     -0.630000       15.9994           0
      1909 MEMB     15       POPC     C22      CTL2    -0.220000       12.0110           0
      1910 MEMB     15       POPC     H2R      HAL2     0.900000E-01   1.00800           0
      1911 MEMB     15       POPC     H2S      HAL2     0.900000E-01   1.00800           0
      1912 MEMB     15       POPC     C3       CTL2     0.800000E-01   12.0110           0
      1913 MEMB     15       POPC     HX       HAL2     0.900000E-01   1.00800           0
      1914 MEMB     15       POPC     HY       HAL2     0.900000E-01   1.00800           0
      1915 MEMB     15       POPC     O31      OSL     -0.490000       15.9994           0
      1916 MEMB     15       POPC     C31      CL       0.900000       12.0110           0
      1917 MEMB     15       POPC     O32      OBL     -0.630000       15.9994           0
      1918 MEMB     15       POPC     C32      CTL2    -0.220000       12.0110           0
      1919 MEMB     15       POPC     H2X      HAL2     0.900000E-01   1.00800           0
      1920 MEMB     15       POPC     H2Y      HAL2     0.900000E-01   1.00800           0
      1921 MEMB     15       POPC     C23      CTL2    -0.180000       12.0110           0
      1922 MEMB     15       POPC     H3R      HAL2     0.900000E-01   1.00800           0
      1923 MEMB     15       POPC     H3S      HAL2     0.900000E-01   1.00800           0
      1924 MEMB     15       POPC     C24      CTL2    -0.180000       12.0110           0
      1925 MEMB     15       POPC     H4R      HAL2     0.900000E-01   1.00800           0
      1926 MEMB     15       POPC     H4S      HAL2     0.900000E-01   1.00800           0
      1927 MEMB     15       POPC     C25      CTL2    -0.180000       12.0110           0
      1928 MEMB     15       POPC     H5R      HAL2     0.900000E-01   1.00800           0
      1929 MEMB     15       POPC     H5S      HAL2     0.900000E-01   1.00800           0
      1930 MEMB     15       POPC     C26      CTL2    -0.180000       12.0110           0
      1931 MEMB     15       POPC     H6R      HAL2     0.900000E-01   1.00800           0
      1932 MEMB     15       POPC     H6S      HAL2     0.900000E-01   1.00800           0
      1933 MEMB     15       POPC     C27      CTL2    -0.180000       12.0110           0
      1934 MEMB     15       POPC     H7R      HAL2     0.900000E-01   1.00800           0
      1935 MEMB     15       POPC     H7S      HAL2     0.900000E-01   1.00800           0
      1936 MEMB     15       POPC     C28      CTL2    -0.180000       12.0110           0
      1937 MEMB     15       POPC     H8R      HAL2     0.900000E-01   1.00800           0
      1938 MEMB     15       POPC     H8S      HAL2     0.900000E-01   1.00800           0
      1939 MEMB     15       POPC     C29      CEL1    -0.150000       12.0110           0
      1940 MEMB     15       POPC     H91      HEL1     0.150000       1.00800           0
      1941 MEMB     15       POPC     C210     CEL1    -0.150000       12.0110           0
      1942 MEMB     15       POPC     H101     HEL1     0.150000       1.00800           0
      1943 MEMB     15       POPC     C211     CTL2    -0.180000       12.0110           0
      1944 MEMB     15       POPC     H11R     HAL2     0.900000E-01   1.00800           0
      1945 MEMB     15       POPC     H11S     HAL2     0.900000E-01   1.00800           0
      1946 MEMB     15       POPC     C212     CTL2    -0.180000       12.0110           0
      1947 MEMB     15       POPC     H12R     HAL2     0.900000E-01   1.00800           0
      1948 MEMB     15       POPC     H12S     HAL2     0.900000E-01   1.00800           0
      1949 MEMB     15       POPC     C213     CTL2    -0.180000       12.0110           0
      1950 MEMB     15       POPC     H13R     HAL2     0.900000E-01   1.00800           0
      1951 MEMB     15       POPC     H13S     HAL2     0.900000E-01   1.00800           0
      1952 MEMB     15       POPC     C214     CTL2    -0.180000       12.0110           0
      1953 MEMB     15       POPC     H14R     HAL2     0.900000E-01   1.00800           0
      1954 MEMB     15       POPC     H14S     HAL2     0.900000E-01   1.00800           0
      1955 MEMB     15       POPC     C215     CTL2    -0.180000       12.0110           0
      1956 MEMB     15       POPC     H15R     HAL2     0.900000E-01   1.00800           0
      1957 MEMB     15       POPC     H15S     HAL2     0.900000E-01   1.00800           0
      1958 MEMB     15       POPC     C216     CTL2    -0.180000       12.0110           0
      1959 MEMB     15       POPC     H16R     HAL2     0.900000E-01   1.00800           0
      1960 MEMB     15       POPC     H16S     HAL2     0.900000E-01   1.00800           0
      1961 MEMB     15       POPC     C217     CTL2    -0.180000       12.0110           0
      1962 MEMB     15       POPC     H17R     HAL2     0.900000E-01   1.00800           0
      1963 MEMB     15       POPC     H17S     HAL2     0.900000E-01   1.00800           0
      1964 MEMB     15       POPC     C218     CTL3    -0.270000       12.0110           0
      1965 MEMB     15       POPC     H18R     HAL3     0.900000E-01   1.00800           0
      1966 MEMB     15       POPC     H18S     HAL3     0.900000E-01   1.00800           0
      1967 MEMB     15       POPC     H18T     HAL3     0.900000E-01   1.00800           0
      1968 MEMB     15       POPC     C33      CTL2    -0.180000       12.0110           0
      1969 MEMB     15       POPC     H3X      HAL2     0.900000E-01   1.00800           0
      1970 MEMB     15       POPC     H3Y      HAL2     0.900000E-01   1.00800           0
      1971 MEMB     15       POPC     C34      CTL2    -0.180000       12.0110           0
      1972 MEMB     15       POPC     H4X      HAL2     0.900000E-01   1.00800           0
      1973 MEMB     15       POPC     H4Y      HAL2     0.900000E-01   1.00800           0
      1974 MEMB     15       POPC     C35      CTL2    -0.180000       12.0110           0
      1975 MEMB     15       POPC     H5X      HAL2     0.900000E-01   1.00800           0
      1976 MEMB     15       POPC     H5Y      HAL2     0.900000E-01   1.00800           0
      1977 MEMB     15       POPC     C36      CTL2    -0.180000       12.0110           0
      1978 MEMB     15       POPC     H6X      HAL2     0.900000E-01   1.00800           0
      1979 MEMB     15       POPC     H6Y      HAL2     0.900000E-01   1.00800           0
      1980 MEMB     15       POPC     C37      CTL2    -0.180000       12.0110           0
      1981 MEMB     15       POPC     H7X      HAL2     0.900000E-01   1.00800           0
      1982 MEMB     15       POPC     H7Y      HAL2     0.900000E-01   1.00800           0
      1983 MEMB     15       POPC     C38      CTL2    -0.180000       12.0110           0
      1984 MEMB     15       POPC     H8X      HAL2     0.900000E-01   1.00800           0
      1985 MEMB     15       POPC     H8Y      HAL2     0.900000E-01   1.00800           0
      1986 MEMB     15       POPC     C39      CTL2    -0.180000       12.0110           0
      1987 MEMB     15       POPC     H9X      HAL2     0.900000E-01   1.00800           0
      1988 MEMB     15       POPC     H9Y      HAL2     0.900000E-01   1.00800           0
      1989 MEMB     15       POPC     C310     CTL2    -0.180000       12.0110           0
      1990 MEMB     15       POPC     H10X     HAL2     0.900000E-01   1.00800           0
      1991 MEMB     15       POPC     H10Y     HAL2     0.900000E-01   1.00800           0
      1992 MEMB     15       POPC     C311     CTL2    -0.180000       12.0110           0
      1993 MEMB     15       POPC     H11X     HAL2     0.900000E-01   1.00800           0
      1994 MEMB     15       POPC     H11Y     HAL2     0.900000E-01   1.00800           0
      1995 MEMB     15       POPC     C312     CTL2    -0.180000       12.0110           0
      1996 MEMB     15       POPC     H12X     HAL2     0.900000E-01   1.00800           0
      1997 MEMB     15       POPC     H12Y     HAL2     0.900000E-01   1.00800           0
      1998 MEMB     15       POPC     C313     CTL2    -0.180000       12.0110           0
      1999 MEMB     15       POPC     H13X     HAL2     0.900000E-01   1.00800           0
      2000 MEMB     15       POPC     H13Y     HAL2     0.900000E-01   1.00800           0
      2001 MEMB     15       POPC     C314     CTL2    -0.180000       12.0110           0
      2002 MEMB     15       POPC     H14X     HAL2     0.900000E-01   1.00800           0
      2003 MEMB     15       POPC     H14Y     HAL2     0.900000E-01   1.00800           0
      2004 MEMB     15       POPC     C315     CTL2    -0.180000       12.0110           0
      2005 MEMB     15       POPC     H15X     HAL2     0.900000E-01   1.00800           0
      2006 MEMB     15       POPC     H15Y     HAL2     0.900000E-01   1.00800           0
      2007 MEMB     15       POPC     C316     CTL3    -0.270000       12.0110           0
      2008 MEMB     15       POPC     H16X     HAL3     0.900000E-01   1.00800           0
      2009 MEMB     15       POPC     H16Y     HAL3     0.900000E-01   1.00800           0
      2010 MEMB     15       POPC     H16Z     HAL3     0.900000E-01   1.00800           0
      2011 MEMB     16       POPC     N        NTL     -0.600000       14.0070           0
      2012 MEMB     16       POPC     C12      CTL2    -0.100000       12.0110           0
      2013 MEMB     16       POPC     H12A     HL       0.250000       1.00800           0
      2014 MEMB     16       POPC     H12B     HL       0.250000       1.00800           0
      2015 MEMB     16       POPC     C13      CTL5    -0.350000       12.0110           0
      2016 MEMB     16       POPC     H13A     HL       0.250000       1.00800           0
      2017 MEMB     16       POPC     H13B     HL       0.250000       1.00800           0
      2018 MEMB     16       POPC     H13C     HL       0.250000       1.00800           0
      2019 MEMB     16       POPC     C14      CTL5    -0.350000       12.0110           0
      2020 MEMB     16       POPC     H14A     HL       0.250000       1.00800           0
      2021 MEMB     16       POPC     H14B     HL       0.250000       1.00800           0
      2022 MEMB     16       POPC     H14C     HL       0.250000       1.00800           0
      2023 MEMB     16       POPC     C15      CTL5    -0.350000       12.0110           0
      2024 MEMB     16       POPC     H15A     HL       0.250000       1.00800           0
      2025 MEMB     16       POPC     H15B     HL       0.250000       1.00800           0
      2026 MEMB     16       POPC     H15C     HL       0.250000       1.00800           0
      2027 MEMB     16       POPC     C11      CTL2    -0.800000E-01   12.0110           0
      2028 MEMB     16       POPC     H11A     HAL2     0.900000E-01   1.00800           0
      2029 MEMB     16       POPC     H11B     HAL2     0.900000E-01   1.00800           0
      2030 MEMB     16       POPC     P        PL        1.50000       30.9740           0
      2031 MEMB     16       POPC     O13      O2L     -0.780000       15.9994           0
      2032 MEMB     16       POPC     O14      O2L     -0.780000       15.9994           0
      2033 MEMB     16       POPC     O12      OSLP    -0.570000       15.9994           0
      2034 MEMB     16       POPC     O11      OSLP    -0.570000       15.9994           0
      2035 MEMB     16       POPC     C1       CTL2    -0.800000E-01   12.0110           0
      2036 MEMB     16       POPC     HA       HAL2     0.900000E-01   1.00800           0
      2037 MEMB     16       POPC     HB       HAL2     0.900000E-01   1.00800           0
      2038 MEMB     16       POPC     C2       CTL1     0.170000       12.0110           0
      2039 MEMB     16       POPC     HS       HAL1     0.900000E-01   1.00800           0
      2040 MEMB     16       POPC     O21      OSL     -0.490000       15.9994           0
      2041 MEMB     16       POPC     C21      CL       0.900000       12.0110           0
      2042 MEMB     16       POPC     O22      OBL     -0.630000       15.9994           0
      2043 MEMB     16       POPC     C22      CTL2    -0.220000       12.0110           0
      2044 MEMB     16       POPC     H2R      HAL2     0.900000E-01   1.00800           0
      2045 MEMB     16       POPC     H2S      HAL2     0.900000E-01   1.00800           0
      2046 MEMB     16       POPC     C3       CTL2     0.800000E-01   12.0110           0
      2047 MEMB     16       POPC     HX       HAL2     0.900000E-01   1.00800           0
      2048 MEMB     16       POPC     HY       HAL2     0.900000E-01   1.00800           0
      2049 MEMB     16       POPC     O31      OSL     -0.490000       15.9994           0
      2050 MEMB     16       POPC     C31      CL       0.900000       12.0110           0
      2051 MEMB     16       POPC     O32      OBL     -0.630000       15.9994           0
      2052 MEMB     16       POPC     C32      CTL2    -0.220000       12.0110           0
      2053 MEMB     16       POPC     H2X      HAL2     0.900000E-01   1.00800           0
      2054 MEMB     16       POPC     H2Y      HAL2     0.900000E-01   1.00800           0
      2055 MEMB     16       POPC     C23      CTL2    -0.180000       12.0110           0
      2056 MEMB     16       POPC     H3R      HAL2     0.900000E-01   1.00800           0
      2057 MEMB     16       POPC     H3S      HAL2     0.900000E-01   1.00800           0
      2058 MEMB     16       POPC     C24      CTL2    -0.180000       12.0110           0
      2059 MEMB     16       POPC     H4R      HAL2     0.900000E-01   1.00800           0
      2060 MEMB     16       POPC     H4S      HAL2     0.900000E-01   1.00800           0
      2061 MEMB     16       POPC     C25      CTL2    -0.180000       12.0110           0
      2062 MEMB     16       POPC     H5R      HAL2     0.900000E-01   1.00800           0
      2063 MEMB     16       POPC     H5S      HAL2     0.900000E-01   1.00800           0
      2064 MEMB     16       POPC     C26      CTL2    -0.180000       12.0110           0
      2065 MEMB     16       POPC     H6R      HAL2     0.900000E-01   1.00800           0
      2066 MEMB     16       POPC     H6S      HAL2     0.900000E-01   1.00800           0
      2067 MEMB     16       POPC     C27      CTL2    -0.180000       12.0110           0
      2068 MEMB     16       POPC     H7R      HAL2     0.900000E-01   1.00800           0
      2069 MEMB     16       POPC     H7S      HAL2     0.900000E-01   1.00800           0
      2070 MEMB     16       POPC     C28      CTL2    -0.180000       12.0110           0
      2071 MEMB     16       POPC     H8R      HAL2     0.900000E-01   1.00800           0
      2072 MEMB     16       POPC     H8S      HAL2     0.900000E-01   1.00800           0
      2073 MEMB     16       POPC     C29      CEL1    -0.150000       12.0110           0
      2074 MEMB     16       POPC     H91      HEL1     0.150000       1.00800           0
      2075 MEMB     16       POPC     C210     CEL1    -0.150000       12.0110           0
      2076 MEMB     16       POPC     H101     HEL1     0.150000       1.00800           0
      2077 MEMB     16       POPC     C211     CTL2    -0.180000       12.0110           0
      2078 MEMB     16       POPC     H11R     HAL2     0.900000E-01   1.00800           0
      2079 MEMB     16       POPC     H11S     HAL2     0.900000E-01   1.00800           0
      2080 MEMB     16       POPC     C212     CTL2    -0.180000       12.0110           0
      2081 MEMB     16       POPC     H12R     HAL2     0.900000E-01   1.00800           0
      2082 MEMB     16       POPC     H12S     HAL2     0.900000E-01   1.00800           0
      2083 MEMB     16       POPC     C213     CTL2    -0.180000       12.0110           0
      2084 MEMB     16       POPC     H13R     HAL2     0.900000E-01   1.00800           0
      2085 MEMB     16       POPC     H13S     HAL2     0.900000E-01   1.00800           0
      2086 MEMB     16       POPC     C214     CTL2    -0.180000       12.0110           0
      2087 MEMB     16       POPC     H14R     HAL2     0.900000E-01   1.00800           0
      2088 MEMB     16       POPC     H14S     HAL2     0.900000E-01   1.00800           0
      2089 MEMB     16       POPC     C215     CTL2    -0.180000       12.0110           0
      2090 MEMB     16       POPC     H15R     HAL2     0.900000E-01   1.00800           0
      2091 MEMB     16       POPC     H15S     HAL2     0.900000E-01   1.00800           0
      2092 MEMB     16       POPC     C216     CTL2    -0.180000       12.0110           0
      2093 MEMB     16       POPC     H16R     HAL2     0.900000E-01   1.00800           0
      2094 MEMB     16       POPC     H16S     HAL2     0.900000E-01   1.00800           0
      2095 MEMB     16       POPC     C217     CTL2    -0.180000       12.0110           0
      2096 MEMB     16       POPC     H17R     HAL2     0.900000E-01   1.00800           0
      2097 MEMB     16       POPC     H17S     HAL2     0.900000E-01   1.00800           0
      2098 MEMB     16       POPC     C218     CTL3    -0.270000       12.0110           0
      2099 MEMB     16       POPC     H18R     HAL3     0.900000E-01   1.00800           0
      2100 MEMB     16       POPC     H18S     HAL3     0.900000E-01   1.00800           0
      2101 MEMB     16       POPC     H18T     HAL3     0.900000E-01   1.00800           0
      2102 MEMB     16       POPC     C33      CTL2    -0.180000       12.0110           0
      2103 MEMB     16       POPC     H3X      HAL2     0.900000E-01   1.00800           0
      2104 MEMB     16       POPC     H3Y      HAL2     0.900000E-01   1.00800           0
      2105 MEMB     16       POPC     C34      CTL2    -0.180000       12.0110           0
      2106 MEMB     16       POPC     H4X      HAL2     0.900000E-01   1.00800           0
      2107 MEMB     16       POPC     H4Y      HAL2     0.900000E-01   1.00800           0
      2108 MEMB     16       POPC     C35      CTL2    -0.180000       12.0110           0
      2109 MEMB     16       POPC     H5X      HAL2     0.900000E-01   1.00800           0
      2110 MEMB     16       POPC     H5Y      HAL2     0.900000E-01   1.00800           0
      2111 MEMB     16       POPC     C36      CTL2    -0.180000       12.0110           0
      2112 MEMB     16       POPC     H6X      HAL2     0.900000E-01   1.00800           0
      2113 MEMB     16       POPC     H6Y      HAL2     0.900000E-01   1.00800           0
      2114 MEMB     16       POPC     C37      CTL2    -0.180000       12.0110           0
      2115 MEMB     16       POPC     H7X      HAL2     0.900000E-01   1.00800           0
      2116 MEMB     16       POPC     H7Y      HAL2     0.900000E-01   1.00800           0
      2117 MEMB     16       POPC     C38      CTL2    -0.180000       12.0110           0
      2118 MEMB     16       POPC     H8X      HAL2     0.900000E-01   1.00800           0
      2119 MEMB     16       POPC     H8Y      HAL2     0.900000E-01   1.00800           0
      2120 MEMB     16       POPC     C39      CTL2    -0.180000       12.0110           0
      2121 MEMB     16       POPC     H9X      HAL2     0.900000E-01   1.00800           0
      2122 MEMB     16       POPC     H9Y      HAL2     0.900000E-01   1.00800           0
      2123 MEMB     16       POPC     C310     CTL2    -0.180000       12.0110           0
      2124 MEMB     16       POPC     H10X     HAL2     0.900000E-01   1.00800           0
      2125 MEMB     16       POPC     H10Y     HAL2     0.900000E-01   1.00800           0
      2126 MEMB     16       POPC     C311     CTL2    -0.180000       12.0110           0
      2127 MEMB     16       POPC     H11X     HAL2     0.900000E-01   1.00800           0
      2128 MEMB     16       POPC     H11Y     HAL2     0.900000E-01   1.00800           0
      2129 MEMB     16       POPC     C312     CTL2    -0.180000       12.0110           0
      2130 MEMB     16       POPC     H12X     HAL2     0.900000E-01   1.00800           0
      2131 MEMB     16       POPC     H12Y     HAL2     0.900000E-01   1.00800           0
      2132 MEMB     16       POPC     C313     CTL2    -0.180000       12.0110           0
      2133 MEMB     16       POPC     H13X     HAL2     0.900000E-01   1.00800           0
      2134 MEMB     16       POPC     H13Y     HAL2     0.900000E-01   1.00800           0
      2135 MEMB     16       POPC     C314     CTL2    -0.180000       12.0110           0
      2136 MEMB     16       POPC     H14X     HAL2     0.900000E-01   1.00800           0
      2137 MEMB     16       POPC     H14Y     HAL2     0.900000E-01   1.00800           0
      2138 MEMB     16       POPC     C315     CTL2    -0.180000       12.0110           0
      2139 MEMB     16       POPC     H15X     HAL2     0.900000E-01   1.00800           0
      2140 MEMB     16       POPC     H15Y     HAL2     0.900000E-01   1.00800           0
      2141 MEMB     16       POPC     C316     CTL3    -0.270000       12.0110           0
      2142 MEMB     16       POPC     H16X     HAL3     0.900000E-01   1.00800           0
      2143 MEMB     16       POPC     H16Y     HAL3     0.900000E-01   1.00800           0
      2144 MEMB     16       POPC     H16Z     HAL3     0.900000E-01   1.00800           0
      2145 MEMB     17       POPC     N        NTL     -0.600000       14.0070           0
      2146 MEMB     17       POPC     C12      CTL2    -0.100000       12.0110           0
      2147 MEMB     17       POPC     H12A     HL       0.250000       1.00800           0
      2148 MEMB     17       POPC     H12B     HL       0.250000       1.00800           0
      2149 MEMB     17       POPC     C13      CTL5    -0.350000       12.0110           0
      2150 MEMB     17       POPC     H13A     HL       0.250000       1.00800           0
      2151 MEMB     17       POPC     H13B     HL       0.250000       1.00800           0
      2152 MEMB     17       POPC     H13C     HL       0.250000       1.00800           0
      2153 MEMB     17       POPC     C14      CTL5    -0.350000       12.0110           0
      2154 MEMB     17       POPC     H14A     HL       0.250000       1.00800           0
      2155 MEMB     17       POPC     H14B     HL       0.250000       1.00800           0
      2156 MEMB     17       POPC     H14C     HL       0.250000       1.00800           0
      2157 MEMB     17       POPC     C15      CTL5    -0.350000       12.0110           0
      2158 MEMB     17       POPC     H15A     HL       0.250000       1.00800           0
      2159 MEMB     17       POPC     H15B     HL       0.250000       1.00800           0
      2160 MEMB     17       POPC     H15C     HL       0.250000       1.00800           0
      2161 MEMB     17       POPC     C11      CTL2    -0.800000E-01   12.0110           0
      2162 MEMB     17       POPC     H11A     HAL2     0.900000E-01   1.00800           0
      2163 MEMB     17       POPC     H11B     HAL2     0.900000E-01   1.00800           0
      2164 MEMB     17       POPC     P        PL        1.50000       30.9740           0
      2165 MEMB     17       POPC     O13      O2L     -0.780000       15.9994           0
      2166 MEMB     17       POPC     O14      O2L     -0.780000       15.9994           0
      2167 MEMB     17       POPC     O12      OSLP    -0.570000       15.9994           0
      2168 MEMB     17       POPC     O11      OSLP    -0.570000       15.9994           0
      2169 MEMB     17       POPC     C1       CTL2    -0.800000E-01   12.0110           0
      2170 MEMB     17       POPC     HA       HAL2     0.900000E-01   1.00800           0
      2171 MEMB     17       POPC     HB       HAL2     0.900000E-01   1.00800           0
      2172 MEMB     17       POPC     C2       CTL1     0.170000       12.0110           0
      2173 MEMB     17       POPC     HS       HAL1     0.900000E-01   1.00800           0
      2174 MEMB     17       POPC     O21      OSL     -0.490000       15.9994           0
      2175 MEMB     17       POPC     C21      CL       0.900000       12.0110           0
      2176 MEMB     17       POPC     O22      OBL     -0.630000       15.9994           0
      2177 MEMB     17       POPC     C22      CTL2    -0.220000       12.0110           0
      2178 MEMB     17       POPC     H2R      HAL2     0.900000E-01   1.00800           0
      2179 MEMB     17       POPC     H2S      HAL2     0.900000E-01   1.00800           0
      2180 MEMB     17       POPC     C3       CTL2     0.800000E-01   12.0110           0
      2181 MEMB     17       POPC     HX       HAL2     0.900000E-01   1.00800           0
      2182 MEMB     17       POPC     HY       HAL2     0.900000E-01   1.00800           0
      2183 MEMB     17       POPC     O31      OSL     -0.490000       15.9994           0
      2184 MEMB     17       POPC     C31      CL       0.900000       12.0110           0
      2185 MEMB     17       POPC     O32      OBL     -0.630000       15.9994           0
      2186 MEMB     17       POPC     C32      CTL2    -0.220000       12.0110           0
      2187 MEMB     17       POPC     H2X      HAL2     0.900000E-01   1.00800           0
      2188 MEMB     17       POPC     H2Y      HAL2     0.900000E-01   1.00800           0
      2189 MEMB     17       POPC     C23      CTL2    -0.180000       12.0110           0
      2190 MEMB     17       POPC     H3R      HAL2     0.900000E-01   1.00800           0
      2191 MEMB     17       POPC     H3S      HAL2     0.900000E-01   1.00800           0
      2192 MEMB     17       POPC     C24      CTL2    -0.180000       12.0110           0
      2193 MEMB     17       POPC     H4R      HAL2     0.900000E-01   1.00800           0
      2194 MEMB     17       POPC     H4S      HAL2     0.900000E-01   1.00800           0
      2195 MEMB     17       POPC     C25      CTL2    -0.180000       12.0110           0
      2196 MEMB     17       POPC     H5R      HAL2     0.900000E-01   1.00800           0
      2197 MEMB     17       POPC     H5S      HAL2     0.900000E-01   1.00800           0
      2198 MEMB     17       POPC     C26      CTL2    -0.180000       12.0110           0
      2199 MEMB     17       POPC     H6R      HAL2     0.900000E-01   1.00800           0
      2200 MEMB     17       POPC     H6S      HAL2     0.900000E-01   1.00800           0
      2201 MEMB     17       POPC     C27      CTL2    -0.180000       12.0110           0
      2202 MEMB     17       POPC     H7R      HAL2     0.900000E-01   1.00800           0
      2203 MEMB     17       POPC     H7S      HAL2     0.900000E-01   1.00800           0
      2204 MEMB     17       POPC     C28      CTL2    -0.180000       12.0110           0
      2205 MEMB     17       POPC     H8R      HAL2     0.900000E-01   1.00800           0
      2206 MEMB     17       POPC     H8S      HAL2     0.900000E-01   1.00800           0
      2207 MEMB     17       POPC     C29      CEL1    -0.150000       12.0110           0
      2208 MEMB     17       POPC     H91      HEL1     0.150000       1.00800           0
      2209 MEMB     17       POPC     C210     CEL1    -0.150000       12.0110           0
      2210 MEMB     17       POPC     H101     HEL1     0.150000       1.00800           0
      2211 MEMB     17       POPC     C211     CTL2    -0.180000       12.0110           0
      2212 MEMB     17       POPC     H11R     HAL2     0.900000E-01   1.00800           0
      2213 MEMB     17       POPC     H11S     HAL2     0.900000E-01   1.00800           0
      2214 MEMB     17       POPC     C212     CTL2    -0.180000       12.0110           0
      2215 MEMB     17       POPC     H12R     HAL2     0.900000E-01   1.00800           0
      2216 MEMB     17       POPC     H12S     HAL2     0.900000E-01   1.00800           0
      2217 MEMB     17       POPC     C213     CTL2    -0.180000       12.0110           0
      2218 MEMB     17       POPC     H13R     HAL2     0.900000E-01   1.00800           0
      2219 MEMB     17       POPC     H13S     HAL2     0.900000E-01   1.00800           0
      2220 MEMB     17       POPC     C214     CTL2    -0.180000       12.0110           0
      2221 MEMB     17       POPC     H14R     HAL2     0.900000E-01   1.00800           0
      2222 MEMB     17       POPC     H14S     HAL2     0.900000E-01   1.00800           0
      2223 MEMB     17       POPC     C215     CTL2    -0.180000       12.0110           0
      2224 MEMB     17       POPC     H15R     HAL2     0.900000E-01   1.00800           0
      2225 MEMB     17       POPC     H15S     HAL2     0.900000E-01   1.00800           0
      2226 MEMB     17       POPC     C216     CTL2    -0.180000       12.0110           0
      2227 MEMB     17       POPC     H16R     HAL2     0.900000E-01   1.00800           0
      2228 MEMB     17       POPC     H16S     HAL2     0.900000E-01   1.00800           0
      2229 MEMB     17       POPC     C217     CTL2    -0.180000       12.0110           0
      2230 MEMB     17       POPC     H17R     HAL2     0.900000E-01   1.00800           0
      2231 MEMB     17       POPC     H17S     HAL2     0.900000E-01   1.00800           0
      2232 MEMB     17       POPC     C218     CTL3    -0.270000       12.0110           0
      2233 MEMB     17       POPC     H18R     HAL3     0.900000E-01   1.00800           0
      2234 MEMB     17       POPC     H18S     HAL3     0.900000E-01   1.00800           0
      2235 MEMB     17       POPC     H18T     HAL3     0.900000E-01   1.00800           0
      2236 MEMB     17       POPC     C33      CTL2    -0.180000       12.0110           0
      2237 MEMB     17       POPC     H3X      HAL2     0.900000E-01   1.00800           0
      2238 MEMB     17       POPC     H3Y      HAL2     0.900000E-01   1.00800           0
      2239 MEMB     17       POPC     C34      CTL2    -0.180000       12.0110           0
      2240 MEMB     17       POPC     H4X      HAL2     0.900000E-01   1.00800           0
      2241 MEMB     17       POPC     H4Y      HAL2     0.900000E-01   1.00800           0
      2242 MEMB     17       POPC     C35      CTL2    -0.180000       12.0110           0
      2243 MEMB     17       POPC     H5X      HAL2     0.900000E-01   1.00800           0
      2244 MEMB     17       POPC     H5Y      HAL2     0.900000E-01   1.00800           0
      2245 MEMB     17       POPC     C36      CTL2    -0.180000       12.0110           0
      2246 MEMB     17       POPC     H6X      HAL2     0.900000E-01   1.00800           0
      2247 MEMB     17       POPC     H6Y      HAL2     0.900000E-01   1.00800           0
      2248 MEMB     17       POPC     C37      CTL2    -0.180000       12.0110           0
      2249 MEMB     17       POPC     H7X      HAL2     0.900000E-01   1.00800           0
      2250 MEMB     17       POPC     H7Y      HAL2     0.900000E-01   1.00800           0
      2251 MEMB     17       POPC     C38      CTL2    -0.180000       12.0110           0
      2252 MEMB     17       POPC     H8X      HAL2     0.900000E-01   1.00800           0
      2253 MEMB     17       POPC     H8Y      HAL2     0.900000E-01   1.00800           0
      2254 MEMB     17       POPC     C39      CTL2    -0.180000       12.0110           0
      2255 MEMB     17       POPC     H9X      HAL2     0.900000E-01   1.00800           0
      2256 MEMB     17       POPC     H9Y      HAL2     0.900000E-01   1.00800           0
      2257 MEMB     17       POPC     C310     CTL2    -0.180000       12.0110           0
      2258 MEMB     17       POPC     H10X     HAL2     0.900000E-01   1.00800           0
      2259 MEMB     17       POPC     H10Y     HAL2     0.900000E-01   1.00800           0
      2260 MEMB     17       POPC     C311     CTL2    -0.180000       12.0110           0
      2261 MEMB     17       POPC     H11X     HAL2     0.900000E-01   1.00800           0
      2262 MEMB     17       POPC     H11Y     HAL2     0.900000E-01   1.00800           0
      2263 MEMB     17       POPC     C312     CTL2    -0.180000       12.0110           0
      2264 MEMB     17       POPC     H12X     HAL2     0.900000E-01   1.00800           0
      2265 MEMB     17       POPC     H12Y     HAL2     0.900000E-01   1.00800           0
      2266 MEMB     17       POPC     C313     CTL2    -0.180000       12.0110           0
      2267 MEMB     17       POPC     H13X     HAL2     0.900000E-01   1.00800           0
      2268 MEMB     17       POPC     H13Y     HAL2     0.900000E-01   1.00800           0
      2269 MEMB     17       POPC     C314     CTL2    -0.180000       12.0110           0
      2270 MEMB     17       POPC     H14X     HAL2     0.900000E-01   1.00800           0
      2271 MEMB     17       POPC     H14Y     HAL2     0.900000E-01   1.00800           0
      2272 MEMB     17       POPC     C315     CTL2    -0.180000       12.0110           0
      2273 MEMB     17       POPC     H15X     HAL2     0.900000E-01   1.00800           0
      2274 MEMB     17       POPC     H15Y     HAL2     0.900000E-01   1.00800           0
      2275 MEMB     17       POPC     C316     CTL3    -0.270000       12.0110           0
      2276 MEMB     17       POPC     H16X     HAL3     0.900000E-01   1.00800           0
      2277 MEMB     17       POPC     H16Y     HAL3     0.900000E-01   1.00800           0
      2278 MEMB     17       POPC     H16Z     HAL3     0.900000E-01   1.00800           0
      2279 MEMB     18       POPC     N        NTL     -0.600000       14.0070           0
      2280 MEMB     18       POPC     C12      CTL2    -0.100000       12.0110           0
      2281 MEMB     18       POPC     H12A     HL       0.250000       1.00800           0
      2282 MEMB     18       POPC     H12B     HL       0.250000       1.00800           0
      2283 MEMB     18       POPC     C13      CTL5    -0.350000       12.0110           0
      2284 MEMB     18       POPC     H13A     HL       0.250000       1.00800           0
      2285 MEMB     18       POPC     H13B     HL       0.250000       1.00800           0
      2286 MEMB     18       POPC     H13C     HL       0.250000       1.00800           0
      2287 MEMB     18       POPC     C14      CTL5    -0.350000       12.0110           0
      2288 MEMB     18       POPC     H14A     HL       0.250000       1.00800           0
      2289 MEMB     18       POPC     H14B     HL       0.250000       1.00800           0
      2290 MEMB     18       POPC     H14C     HL       0.250000       1.00800           0
      2291 MEMB     18       POPC     C15      CTL5    -0.350000       12.0110           0
      2292 MEMB     18       POPC     H15A     HL       0.250000       1.00800           0
      2293 MEMB     18       POPC     H15B     HL       0.250000       1.00800           0
      2294 MEMB     18       POPC     H15C     HL       0.250000       1.00800           0
      2295 MEMB     18       POPC     C11      CTL2    -0.800000E-01   12.0110           0
      2296 MEMB     18       POPC     H11A     HAL2     0.900000E-01   1.00800           0
      2297 MEMB     18       POPC     H11B     HAL2     0.900000E-01   1.00800           0
      2298 MEMB     18       POPC     P        PL        1.50000       30.9740           0
      2299 MEMB     18       POPC     O13      O2L     -0.780000       15.9994           0
      2300 MEMB     18       POPC     O14      O2L     -0.780000       15.9994           0
      2301 MEMB     18       POPC     O12      OSLP    -0.570000       15.9994           0
      2302 MEMB     18       POPC     O11      OSLP    -0.570000       15.9994           0
      2303 MEMB     18       POPC     C1       CTL2    -0.800000E-01   12.0110           0
      2304 MEMB     18       POPC     HA       HAL2     0.900000E-01   1.00800           0
      2305 MEMB     18       POPC     HB       HAL2     0.900000E-01   1.00800           0
      2306 MEMB     18       POPC     C2       CTL1     0.170000       12.0110           0
      2307 MEMB     18       POPC     HS       HAL1     0.900000E-01   1.00800           0
      2308 MEMB     18       POPC     O21      OSL     -0.490000       15.9994           0
      2309 MEMB     18       POPC     C21      CL       0.900000       12.0110           0
      2310 MEMB     18       POPC     O22      OBL     -0.630000       15.9994           0
      2311 MEMB     18       POPC     C22      CTL2    -0.220000       12.0110           0
      2312 MEMB     18       POPC     H2R      HAL2     0.900000E-01   1.00800           0
      2313 MEMB     18       POPC     H2S      HAL2     0.900000E-01   1.00800           0
      2314 MEMB     18       POPC     C3       CTL2     0.800000E-01   12.0110           0
      2315 MEMB     18       POPC     HX       HAL2     0.900000E-01   1.00800           0
      2316 MEMB     18       POPC     HY       HAL2     0.900000E-01   1.00800           0
      2317 MEMB     18       POPC     O31      OSL     -0.490000       15.9994           0
      2318 MEMB     18       POPC     C31      CL       0.900000       12.0110           0
      2319 MEMB     18       POPC     O32      OBL     -0.630000       15.9994           0
      2320 MEMB     18       POPC     C32      CTL2    -0.220000       12.0110           0
      2321 MEMB     18       POPC     H2X      HAL2     0.900000E-01   1.00800           0
      2322 MEMB     18       POPC     H2Y      HAL2     0.900000E-01   1.00800           0
      2323 MEMB     18       POPC     C23      CTL2    -0.180000       12.0110           0
      2324 MEMB     18       POPC     H3R      HAL2     0.900000E-01   1.00800           0
      2325 MEMB     18       POPC     H3S      HAL2     0.900000E-01   1.00800           0
      2326 MEMB     18       POPC     C24      CTL2    -0.180000       12.0110           0
      2327 MEMB     18       POPC     H4R      HAL2     0.900000E-01   1.00800           0
      2328 MEMB     18       POPC     H4S      HAL2     0.900000E-01   1.00800           0
      2329 MEMB     18       POPC     C25      CTL2    -0.180000       12.0110           0
      2330 MEMB     18       POPC     H5R      HAL2     0.900000E-01   1.00800           0
      2331 MEMB     18       POPC     H5S      HAL2     0.900000E-01   1.00800           0
      2332 MEMB     18       POPC     C26      CTL2    -0.180000       12.0110           0
      2333 MEMB     18       POPC     H6R      HAL2     0.900000E-01   1.00800           0
      2334 MEMB     18       POPC     H6S      HAL2     0.900000E-01   1.00800           0
      2335 MEMB     18       POPC     C27      CTL2    -0.180000       12.0110           0
      2336 MEMB     18       POPC     H7R      HAL2     0.900000E-01   1.00800           0
      2337 MEMB     18       POPC     H7S      HAL2     0.900000E-01   1.00800           0
      2338 MEMB     18       POPC     C28      CTL2    -0.180000       12.0110           0
      2339 MEMB     18       POPC     H8R      HAL2     0.900000E-01   1.00800           0
      2340 MEMB     18       POPC     H8S      HAL2     0.900000E-01   1.00800           0
      2341 MEMB     18       POPC     C29      CEL1    -0.150000       12.0110           0
      2342 MEMB     18       POPC     H91      HEL1     0.150000       1.00800           0
      2343 MEMB     18       POPC     C210     CEL1    -0.150000       12.0110           0
      2344 MEMB     18       POPC     H101     HEL1     0.150000       1.00800           0
      2345 MEMB     18       POPC     C211     CTL2    -0.180000       12.0110           0
      2346 MEMB     18       POPC     H11R     HAL2     0.900000E-01   1.00800           0
      2347 MEMB     18       POPC     H11S     HAL2     0.900000E-01   1.00800           0
      2348 MEMB     18       POPC     C212     CTL2    -0.180000       12.0110           0
      2349 MEMB     18       POPC     H12R     HAL2     0.900000E-01   1.00800           0
      2350 MEMB     18       POPC     H12S     HAL2     0.900000E-01   1.00800           0
      2351 MEMB     18       POPC     C213     CTL2    -0.180000       12.0110           0
      2352 MEMB     18       POPC     H13R     HAL2     0.900000E-01   1.00800           0
      2353 MEMB     18       POPC     H13S     HAL2     0.900000E-01   1.00800           0
      2354 MEMB     18       POPC     C214     CTL2    -0.180000       12.0110           0
      2355 MEMB     18       POPC     H14R     HAL2     0.900000E-01   1.00800           0
      2356 MEMB     18       POPC     H14S     HAL2     0.900000E-01   1.00800           0
      2357 MEMB     18       POPC     C215     CTL2    -0.180000       12.0110           0
      2358 MEMB     18       POPC     H15R     HAL2     0.900000E-01   1.00800           0
      2359 MEMB     18       POPC     H15S     HAL2     0.900000E-01   1.00800           0
      2360 MEMB     18       POPC     C216     CTL2    -0.180000       12.0110           0
      2361 MEMB     18       POPC     H16R     HAL2     0.900000E-01   1.00800           0
      2362 MEMB     18       POPC     H16S     HAL2     0.900000E-01   1.00800           0
      2363 MEMB     18       POPC     C217     CTL2    -0.180000       12.0110           0
      2364 MEMB     18       POPC     H17R     HAL2     0.900000E-01   1.00800           0
      2365 MEMB     18       POPC     H17S     HAL2     0.900000E-01   1.00800           0
      2366 MEMB     18       POPC     C218     CTL3    -0.270000       12.0110           0
      2367 MEMB     18       POPC     H18R     HAL3     0.900000E-01   1.00800           0
      2368 MEMB     18       POPC     H18S     HAL3     0.900000E-01   1.00800           0
      2369 MEMB     18       POPC     H18T     HAL3     0.900000E-01   1.00800           0
      2370 MEMB     18       POPC     C33      CTL2    -0.180000       12.0110           0
      2371 MEMB     18       POPC     H3X      HAL2     0.900000E-01   1.00800           0
      2372 MEMB     18       POPC     H3Y      HAL2     0.900000E-01   1.00800           0
      2373 MEMB     18       POPC     C34      CTL2    -0.180000       12.0110           0
      2374 MEMB     18       POPC     H4X      HAL2     0.900000E-01   1.00800           0
      2375 MEMB     18       POPC     H4Y      HAL2     0.900000E-01   1.00800           0
      2376 MEMB     18       POPC     C35      CTL2    -0.180000       12.0110           0
      2377 MEMB     18       POPC     H5X      HAL2     0.900000E-01   1.00800           0
      2378 MEMB     18       POPC     H5Y      HAL2     0.900000E-01   1.00800           0
      2379 MEMB     18       POPC     C36      CTL2    -0.180000       12.0110           0
      2380 MEMB     18       POPC     H6X      HAL2     0.900000E-01   1.00800           0
      2381 MEMB     18       POPC     H6Y      HAL2     0.900000E-01   1.00800           0
      2382 MEMB     18       POPC     C37      CTL2    -0.180000       12.0110           0
      2383 MEMB     18       POPC     H7X      HAL2     0.900000E-01   1.00800           0
      2384 MEMB     18       POPC     H7Y      HAL2     0.900000E-01   1.00800           0
      2385 MEMB     18       POPC     C38      CTL2    -0.180000       12.0110           0
      2386 MEMB     18       POPC     H8X      HAL2     0.900000E-01   1.00800           0
      2387 MEMB     18       POPC     H8Y      HAL2     0.900000E-01   1.00800           0
      2388 MEMB     18       POPC     C39      CTL2    -0.180000       12.0110           0
      2389 MEMB     18       POPC     H9X      HAL2     0.900000E-01   1.00800           0
      2390 MEMB     18       POPC     H9Y      HAL2     0.900000E-01   1.00800           0
      2391 MEMB     18       POPC     C310     CTL2    -0.180000       12.0110           0
      2392 MEMB     18       POPC     H10X     HAL2     0.900000E-01   1.00800           0
      2393 MEMB     18       POPC     H10Y     HAL2     0.900000E-01   1.00800           0
      2394 MEMB     18       POPC     C311     CTL2    -0.180000       12.0110           0
      2395 MEMB     18       POPC     H11X     HAL2     0.900000E-01   1.00800           0
      2396 MEMB     18       POPC     H11Y     HAL2     0.900000E-01   1.00800           0
      2397 MEMB     18       POPC     C312     CTL2    -0.180000       12.0110           0
      2398 MEMB     18       POPC     H12X     HAL2     0.900000E-01   1.00800           0
      2399 MEMB     18       POPC     H12Y     HAL2     0.900000E-01   1.00800           0
      2400 MEMB     18       POPC     C313     CTL2    -0.180000       12.0110           0
      2401 MEMB     18       POPC     H13X     HAL2     0.900000E-01   1.00800           0
      2402 MEMB     18       POPC     H13Y     HAL2     0.900000E-01   1.00800           0
      2403 MEMB     18       POPC     C314     CTL2    -0.180000       12.0110           0
      2404 MEMB     18       POPC     H14X     HAL2     0.900000E-01   1.00800           0
      2405 MEMB     18       POPC     H14Y     HAL2     0.900000E-01   1.00800           0
      2406 MEMB     18       POPC     C315     CTL2    -0.180000       12.0110           0
      2407 MEMB     18       POPC     H15X     HAL2     0.900000E-01   1.00800           0
      2408 MEMB     18       POPC     H15Y     HAL2     0.900000E-01   1.00800           0
      2409 MEMB     18       POPC     C316     CTL3    -0.270000       12.0110           0
      2410 MEMB     18       POPC     H16X     HAL3     0.900000E-01   1.00800           0
      2411 MEMB     18       POPC     H16Y     HAL3     0.900000E-01   1.00800           0
      2412 MEMB     18       POPC     H16Z     HAL3     0.900000E-01   1.00800           0
      2413 MEMB     19       POPC     N        NTL     -0.600000       14.0070           0
      2414 MEMB     19       POPC     C12      CTL2    -0.100000       12.0110           0
      2415 MEMB     19       POPC     H12A     HL       0.250000       1.00800           0
      2416 MEMB     19       POPC     H12B     HL       0.250000       1.00800           0
      2417 MEMB     19       POPC     C13      CTL5    -0.350000       12.0110           0
      2418 MEMB     19       POPC     H13A     HL       0.250000       1.00800           0
      2419 MEMB     19       POPC     H13B     HL       0.250000       1.00800           0
      2420 MEMB     19       POPC     H13C     HL       0.250000       1.00800           0
      2421 MEMB     19       POPC     C14      CTL5    -0.350000       12.0110           0
      2422 MEMB     19       POPC     H14A     HL       0.250000       1.00800           0
      2423 MEMB     19       POPC     H14B     HL       0.250000       1.00800           0
      2424 MEMB     19       POPC     H14C     HL       0.250000       1.00800           0
      2425 MEMB     19       POPC     C15      CTL5    -0.350000       12.0110           0
      2426 MEMB     19       POPC     H15A     HL       0.250000       1.00800           0
      2427 MEMB     19       POPC     H15B     HL       0.250000       1.00800           0
      2428 MEMB     19       POPC     H15C     HL       0.250000       1.00800           0
      2429 MEMB     19       POPC     C11      CTL2    -0.800000E-01   12.0110           0
      2430 MEMB     19       POPC     H11A     HAL2     0.900000E-01   1.00800           0
      2431 MEMB     19       POPC     H11B     HAL2     0.900000E-01   1.00800           0
      2432 MEMB     19       POPC     P        PL        1.50000       30.9740           0
      2433 MEMB     19       POPC     O13      O2L     -0.780000       15.9994           0
      2434 MEMB     19       POPC     O14      O2L     -0.780000       15.9994           0
      2435 MEMB     19       POPC     O12      OSLP    -0.570000       15.9994           0
      2436 MEMB     19       POPC     O11      OSLP    -0.570000       15.9994           0
      2437 MEMB     19       POPC     C1       CTL2    -0.800000E-01   12.0110           0
      2438 MEMB     19       POPC     HA       HAL2     0.900000E-01   1.00800           0
      2439 MEMB     19       POPC     HB       HAL2     0.900000E-01   1.00800           0
      2440 MEMB     19       POPC     C2       CTL1     0.170000       12.0110           0
      2441 MEMB     19       POPC     HS       HAL1     0.900000E-01   1.00800           0
      2442 MEMB     19       POPC     O21      OSL     -0.490000       15.9994           0
      2443 MEMB     19       POPC     C21      CL       0.900000       12.0110           0
      2444 MEMB     19       POPC     O22      OBL     -0.630000       15.9994           0
      2445 MEMB     19       POPC     C22      CTL2    -0.220000       12.0110           0
      2446 MEMB     19       POPC     H2R      HAL2     0.900000E-01   1.00800           0
      2447 MEMB     19       POPC     H2S      HAL2     0.900000E-01   1.00800           0
      2448 MEMB     19       POPC     C3       CTL2     0.800000E-01   12.0110           0
      2449 MEMB     19       POPC     HX       HAL2     0.900000E-01   1.00800           0
      2450 MEMB     19       POPC     HY       HAL2     0.900000E-01   1.00800           0
      2451 MEMB     19       POPC     O31      OSL     -0.490000       15.9994           0
      2452 MEMB     19       POPC     C31      CL       0.900000       12.0110           0
      2453 MEMB     19       POPC     O32      OBL     -0.630000       15.9994           0
      2454 MEMB     19       POPC     C32      CTL2    -0.220000       12.0110           0
      2455 MEMB     19       POPC     H2X      HAL2     0.900000E-01   1.00800           0
      2456 MEMB     19       POPC     H2Y      HAL2     0.900000E-01   1.00800           0
      2457 MEMB     19       POPC     C23      CTL2    -0.180000       12.0110           0
      2458 MEMB     19       POPC     H3R      HAL2     0.900000E-01   1.00800           0
      2459 MEMB     19       POPC     H3S      HAL2     0.900000E-01   1.00800           0
      2460 MEMB     19       POPC     C24      CTL2    -0.180000       12.0110           0
      2461 MEMB     19       POPC     H4R      HAL2     0.900000E-01   1.00800           0
      2462 MEMB     19       POPC     H4S      HAL2     0.900000E-01   1.00800           0
      2463 MEMB     19       POPC     C25      CTL2    -0.180000       12.0110           0
      2464 MEMB     19       POPC     H5R      HAL2     0.900000E-01   1.00800           0
      2465 MEMB     19       POPC     H5S      HAL2     0.900000E-01   1.00800           0
      2466 MEMB     19       POPC     C26      CTL2    -0.180000       12.0110           0
      2467 MEMB     19       POPC     H6R      HAL2     0.900000E-01   1.00800           0
      2468 MEMB     19       POPC     H6S      HAL2     0.900000E-01   1.00800           0
      2469 MEMB     19       POPC     C27      CTL2    -0.180000       12.0110           0
      2470 MEMB     19       POPC     H7R      HAL2     0.900000E-01   1.00800           0
      2471 MEMB     19       POPC     H7S      HAL2     0.900000E-01   1.00800           0
      2472 MEMB     19       POPC     C28      CTL2    -0.180000       12.0110           0
      2473 MEMB     19       POPC     H8R      HAL2     0.900000E-01   1.00800           0
      2474 MEMB     19       POPC     H8S      HAL2     0.900000E-01   1.00800           0
      2475 MEMB     19       POPC     C29      CEL1    -0.150000       12.0110           0
      2476 MEMB     19       POPC     H91      HEL1     0.150000       1.00800           0
      2477 MEMB     19       POPC     C210     CEL1    -0.150000       12.0110           0
      2478 MEMB     19       POPC     H101     HEL1     0.150000       1.00800           0
      2479 MEMB     19       POPC     C211     CTL2    -0.180000       12.0110           0
      2480 MEMB     19       POPC     H11R     HAL2     0.900000E-01   1.00800           0
      2481 MEMB     19       POPC     H11S     HAL2     0.900000E-01   1.00800           0
      2482 MEMB     19       POPC     C212     CTL2    -0.180000       12.0110           0
      2483 MEMB     19       POPC     H12R     HAL2     0.900000E-01   1.00800           0
      2484 MEMB     19       POPC     H12S     HAL2     0.900000E-01   1.00800           0
      2485 MEMB     19       POPC     C213     CTL2    -0.180000       12.0110           0
      2486 MEMB     19       POPC     H13R     HAL2     0.900000E-01   1.00800           0
      2487 MEMB     19       POPC     H13S     HAL2     0.900000E-01   1.00800           0
      2488 MEMB     19       POPC     C214     CTL2    -0.180000       12.0110           0
      2489 MEMB     19       POPC     H14R     HAL2     0.900000E-01   1.00800           0
      2490 MEMB     19       POPC     H14S     HAL2     0.900000E-01   1.00800           0
      2491 MEMB     19       POPC     C215     CTL2    -0.180000       12.0110           0
      2492 MEMB     19       POPC     H15R     HAL2     0.900000E-01   1.00800           0
      2493 MEMB     19       POPC     H15S     HAL2     0.900000E-01   1.00800           0
      2494 MEMB     19       POPC     C216     CTL2    -0.180000       12.0110           0
      2495 MEMB     19       POPC     H16R     HAL2     0.900000E-01   1.00800           0
      2496 MEMB     19       POPC     H16S     HAL2     0.900000E-01   1.00800           0
      2497 MEMB     19       POPC     C217     CTL2    -0.180000       12.0110           0
      2498 MEMB     19       POPC     H17R     HAL2     0.900000E-01   1.00800           0
      2499 MEMB     19       POPC     H17S     HAL2     0.900000E-01   1.00800           0
      2500 MEMB     19       POPC     C218     CTL3    -0.270000       12.0110           0
      2501 MEMB     19       POPC     H18R     HAL3     0.900000E-01   1.00800           0
      2502 MEMB     19       POPC     H18S     HAL3     0.900000E-01   1.00800           0
      2503 MEMB     19       POPC     H18T     HAL3     0.900000E-01   1.00800           0
      2504 MEMB     19       POPC     C33      CTL2    -0.180000       12.0110           0
      2505 MEMB     19       POPC     H3X      HAL2     0.900000E-01   1.00800           0
      2506 MEMB     19       POPC     H3Y      HAL2     0.900000E-01   1.00800           0
      2507 MEMB     19       POPC     C34      CTL2    -0.180000       12.0110           0
      2508 MEMB     19       POPC     H4X      HAL2     0.900000E-01   1.00800           0
      2509 MEMB     19       POPC     H4Y      HAL2     0.900000E-01   1.00800           0
      2510 MEMB     19       POPC     C35      CTL2    -0.180000       12.0110           0
      2511 MEMB     19       POPC     H5X      HAL2     0.900000E-01   1.00800           0
      2512 MEMB     19       POPC     H5Y      HAL2     0.900000E-01   1.00800           0
      2513 MEMB     19       POPC     C36      CTL2    -0.180000       12.0110           0
      2514 MEMB     19       POPC     H6X      HAL2     0.900000E-01   1.00800           0
      2515 MEMB     19       POPC     H6Y      HAL2     0.900000E-01   1.00800           0
      2516 MEMB     19       POPC     C37      CTL2    -0.180000       12.0110           0
      2517 MEMB     19       POPC     H7X      HAL2     0.900000E-01   1.00800           0
      2518 MEMB     19       POPC     H7Y      HAL2     0.900000E-01   1.00800           0
      2519 MEMB     19       POPC     C38      CTL2    -0.180000       12.0110           0
      2520 MEMB     19       POPC     H8X      HAL2     0.900000E-01   1.00800           0
      2521 MEMB     19       POPC     H8Y      HAL2     0.900000E-01   1.00800           0
      2522 MEMB     19       POPC     C39      CTL2    -0.180000       12.0110           0
      2523 MEMB     19       POPC     H9X      HAL2     0.900000E-01   1.00800           0
      2524 MEMB     19       POPC     H9Y      HAL2     0.900000E-01   1.00800           0
      2525 MEMB     19       POPC     C310     CTL2    -0.180000       12.0110           0
      2526 MEMB     19       POPC     H10X     HAL2     0.900000E-01   1.00800           0
      2527 MEMB     19       POPC     H10Y     HAL2     0.900000E-01   1.00800           0
      2528 MEMB     19       POPC     C311     CTL2    -0.180000       12.0110           0
      2529 MEMB     19       POPC     H11X     HAL2     0.900000E-01   1.00800           0
      2530 MEMB     19       POPC     H11Y     HAL2     0.900000E-01   1.00800           0
      2531 MEMB     19       POPC     C312     CTL2    -0.180000       12.0110           0
      2532 MEMB     19       POPC     H12X     HAL2     0.900000E-01   1.00800           0
      2533 MEMB     19       POPC     H12Y     HAL2     0.900000E-01   1.00800           0
      2534 MEMB     19       POPC     C313     CTL2    -0.180000       12.0110           0
      2535 MEMB     19       POPC     H13X     HAL2     0.900000E-01   1.00800           0
      2536 MEMB     19       POPC     H13Y     HAL2     0.900000E-01   1.00800           0
      2537 MEMB     19       POPC     C314     CTL2    -0.180000       12.0110           0
      2538 MEMB     19       POPC     H14X     HAL2     0.900000E-01   1.00800           0
      2539 MEMB     19       POPC     H14Y     HAL2     0.900000E-01   1.00800           0
      2540 MEMB     19       POPC     C315     CTL2    -0.180000       12.0110           0
      2541 MEMB     19       POPC     H15X     HAL2     0.900000E-01   1.00800           0
      2542 MEMB     19       POPC     H15Y     HAL2     0.900000E-01   1.00800           0
      2543 MEMB     19       POPC     C316     CTL3    -0.270000       12.0110           0
      2544 MEMB     19       POPC     H16X     HAL3     0.900000E-01   1.00800           0
      2545 MEMB     19       POPC     H16Y     HAL3     0.900000E-01   1.00800           0
      2546 MEMB     19       POPC     H16Z     HAL3     0.900000E-01   1.00800           0
      2547 MEMB     20       POPC     N        NTL     -0.600000       14.0070           0
      2548 MEMB     20       POPC     C12      CTL2    -0.100000       12.0110           0
      2549 MEMB     20       POPC     H12A     HL       0.250000       1.00800           0
      2550 MEMB     20       POPC     H12B     HL       0.250000       1.00800           0
      2551 MEMB     20       POPC     C13      CTL5    -0.350000       12.0110           0
      2552 MEMB     20       POPC     H13A     HL       0.250000       1.00800           0
      2553 MEMB     20       POPC     H13B     HL       0.250000       1.00800           0
      2554 MEMB     20       POPC     H13C     HL       0.250000       1.00800           0
      2555 MEMB     20       POPC     C14      CTL5    -0.350000       12.0110           0
      2556 MEMB     20       POPC     H14A     HL       0.250000       1.00800           0
      2557 MEMB     20       POPC     H14B     HL       0.250000       1.00800           0
      2558 MEMB     20       POPC     H14C     HL       0.250000       1.00800           0
      2559 MEMB     20       POPC     C15      CTL5    -0.350000       12.0110           0
      2560 MEMB     20       POPC     H15A     HL       0.250000       1.00800           0
      2561 MEMB     20       POPC     H15B     HL       0.250000       1.00800           0
      2562 MEMB     20       POPC     H15C     HL       0.250000       1.00800           0
      2563 MEMB     20       POPC     C11      CTL2    -0.800000E-01   12.0110           0
      2564 MEMB     20       POPC     H11A     HAL2     0.900000E-01   1.00800           0
      2565 MEMB     20       POPC     H11B     HAL2     0.900000E-01   1.00800           0
      2566 MEMB     20       POPC     P        PL        1.50000       30.9740           0
      2567 MEMB     20       POPC     O13      O2L     -0.780000       15.9994           0
      2568 MEMB     20       POPC     O14      O2L     -0.780000       15.9994           0
      2569 MEMB     20       POPC     O12      OSLP    -0.570000       15.9994           0
      2570 MEMB     20       POPC     O11      OSLP    -0.570000       15.9994           0
      2571 MEMB     20       POPC     C1       CTL2    -0.800000E-01   12.0110           0
      2572 MEMB     20       POPC     HA       HAL2     0.900000E-01   1.00800           0
      2573 MEMB     20       POPC     HB       HAL2     0.900000E-01   1.00800           0
      2574 MEMB     20       POPC     C2       CTL1     0.170000       12.0110           0
      2575 MEMB     20       POPC     HS       HAL1     0.900000E-01   1.00800           0
      2576 MEMB     20       POPC     O21      OSL     -0.490000       15.9994           0
      2577 MEMB     20       POPC     C21      CL       0.900000       12.0110           0
      2578 MEMB     20       POPC     O22      OBL     -0.630000       15.9994           0
      2579 MEMB     20       POPC     C22      CTL2    -0.220000       12.0110           0
      2580 MEMB     20       POPC     H2R      HAL2     0.900000E-01   1.00800           0
      2581 MEMB     20       POPC     H2S      HAL2     0.900000E-01   1.00800           0
      2582 MEMB     20       POPC     C3       CTL2     0.800000E-01   12.0110           0
      2583 MEMB     20       POPC     HX       HAL2     0.900000E-01   1.00800           0
      2584 MEMB     20       POPC     HY       HAL2     0.900000E-01   1.00800           0
      2585 MEMB     20       POPC     O31      OSL     -0.490000       15.9994           0
      2586 MEMB     20       POPC     C31      CL       0.900000       12.0110           0
      2587 MEMB     20       POPC     O32      OBL     -0.630000       15.9994           0
      2588 MEMB     20       POPC     C32      CTL2    -0.220000       12.0110           0
      2589 MEMB     20       POPC     H2X      HAL2     0.900000E-01   1.00800           0
      2590 MEMB     20       POPC     H2Y      HAL2     0.900000E-01   1.00800           0
      2591 MEMB     20       POPC     C23      CTL2    -0.180000       12.0110           0
      2592 MEMB     20       POPC     H3R      HAL2     0.900000E-01   1.00800           0
      2593 MEMB     20       POPC     H3S      HAL2     0.900000E-01   1.00800           0
      2594 MEMB     20       POPC     C24      CTL2    -0.180000       12.0110           0
      2595 MEMB     20       POPC     H4R      HAL2     0.900000E-01   1.00800           0
      2596 MEMB     20       POPC     H4S      HAL2     0.900000E-01   1.00800           0
      2597 MEMB     20       POPC     C25      CTL2    -0.180000       12.0110           0
      2598 MEMB     20       POPC     H5R      HAL2     0.900000E-01   1.00800           0
      2599 MEMB     20       POPC     H5S      HAL2     0.900000E-01   1.00800           0
      2600 MEMB     20       POPC     C26      CTL2    -0.180000       12.0110           0
      2601 MEMB     20       POPC     H6R      HAL2     0.900000E-01   1.00800           0
      2602 MEMB     20       POPC     H6S      HAL2     0.900000E-01   1.00800           0
      2603 MEMB     20       POPC     C27      CTL2    -0.180000       12.0110           0
      2604 MEMB     20       POPC     H7R      HAL2     0.900000E-01   1.00800           0
      2605 MEMB     20       POPC     H7S      HAL2     0.900000E-01   1.00800           0
      2606 MEMB     20       POPC     C28      CTL2    -0.180000       12.0110           0
      2607 MEMB     20       POPC     H8R      HAL2     0.900000E-01   1.00800           0
      2608 MEMB     20       POPC     H8S      HAL2     0.900000E-01   1.00800           0
      2609 MEMB     20       POPC     C29      CEL1    -0.150000       12.0110           0
      2610 MEMB     20       POPC     H91      HEL1     0.150000       1.00800           0
      2611 MEMB     20       POPC     C210     CEL1    -0.150000       12.0110           0
      2612 MEMB     20       POPC     H101     HEL1     0.150000       1.00800           0
      2613 MEMB     20       POPC     C211     CTL2    -0.180000       12.0110           0
      2614 MEMB     20       POPC     H11R     HAL2     0.900000E-01   1.00800           0
      2615 MEMB     20       POPC     H11S     HAL2     0.900000E-01   1.00800           0
      2616 MEMB     20       POPC     C212     CTL2    -0.180000       12.0110           0
      2617 MEMB     20       POPC     H12R     HAL2     0.900000E-01   1.00800           0
      2618 MEMB     20       POPC     H12S     HAL2     0.900000E-01   1.00800           0
      2619 MEMB     20       POPC     C213     CTL2    -0.180000       12.0110           0
      2620 MEMB     20       POPC     H13R     HAL2     0.900000E-01   1.00800           0
      2621 MEMB     20       POPC     H13S     HAL2     0.900000E-01   1.00800           0
      2622 MEMB     20       POPC     C214     CTL2    -0.180000       12.0110           0
      2623 MEMB     20       POPC     H14R     HAL2     0.900000E-01   1.00800           0
      2624 MEMB     20       POPC     H14S     HAL2     0.900000E-01   1.00800           0
      2625 MEMB     20       POPC     C215     CTL2    -0.180000       12.0110           0
      2626 MEMB     20       POPC     H15R     HAL2     0.900000E-01   1.00800           0
      2627 MEMB     20       POPC     H15S     HAL2     0.900000E-01   1.00800           0
      2628 MEMB     20       POPC     C216     CTL2    -0.180000       12.0110           0
      2629 MEMB     20       POPC     H16R     HAL2     0.900000E-01   1.00800           0
      2630 MEMB     20       POPC     H16S     HAL2     0.900000E-01   1.00800           0
      2631 MEMB     20       POPC     C217     CTL2    -0.180000       12.0110           0
      2632 MEMB     20       POPC     H17R     HAL2     0.900000E-01   1.00800           0
      2633 MEMB     20       POPC     H17S     HAL2     0.900000E-01   1.00800           0
      2634 MEMB     20       POPC     C218     CTL3    -0.270000       12.0110           0
      2635 MEMB     20       POPC     H18R     HAL3     0.900000E-01   1.00800           0
      2636 MEMB     20       POPC     H18S     HAL3     0.900000E-01   1.00800           0
      2637 MEMB     20       POPC     H18T     HAL3     0.900000E-01   1.00800           0
      2638 MEMB     20       POPC     C33      CTL2    -0.180000       12.0110           0
      2639 MEMB     20       POPC     H3X      HAL2     0.900000E-01   1.00800           0
      2640 MEMB     20       POPC     H3Y      HAL2     0.900000E-01   1.00800           0
      2641 MEMB     20       POPC     C34      CTL2    -0.180000       12.0110           0
      2642 MEMB     20       POPC     H4X      HAL2     0.900000E-01   1.00800           0
      2643 MEMB     20       POPC     H4Y      HAL2     0.900000E-01   1.00800           0
      2644 MEMB     20       POPC     C35      CTL2    -0.180000       12.0110           0
      2645 MEMB     20       POPC     H5X      HAL2     0.900000E-01   1.00800           0
      2646 MEMB     20       POPC     H5Y      HAL2     0.900000E-01   1.00800           0
      2647 MEMB     20       POPC     C36      CTL2    -0.180000       12.0110           0
      2648 MEMB     20       POPC     H6X      HAL2     0.900000E-01   1.00800           0
      2649 MEMB     20       POPC     H6Y      HAL2     0.900000E-01   1.00800           0
      2650 MEMB     20       POPC     C37      CTL2    -0.180000       12.0110           0
      2651 MEMB     20       POPC     H7X      HAL2     0.900000E-01   1.00800           0
      2652 MEMB     20       POPC     H7Y      HAL2     0.900000E-01   1.00800           0
      2653 MEMB     20       POPC     C38      CTL2    -0.180000       12.0110           0
      2654 MEMB     20       POPC     H8X      HAL2     0.900000E-01   1.00800           0
      2655 MEMB     20       POPC     H8Y      HAL2     0.900000E-01   1.00800           0
      2656 MEMB     20       POPC     C39      CTL2    -0.180000       12.0110           0
      2657 MEMB     20       POPC     H9X      HAL2     0.900000E-01   1.00800           0
      2658 MEMB     20       POPC     H9Y      HAL2     0.900000E-01   1.00800           0
      2659 MEMB     20       POPC     C310     CTL2    -0.180000       12.0110           0
      2660 MEMB     20       POPC     H10X     HAL2     0.900000E-01   1.00800           0
      2661 MEMB     20       POPC     H10Y     HAL2     0.900000E-01   1.00800           0
      2662 MEMB     20       POPC     C311     CTL2    -0.180000       12.0110           0
      2663 MEMB     20       POPC     H11X     HAL2     0.900000E-01   1.00800           0
      2664 MEMB     20       POPC     H11Y     HAL2     0.900000E-01   1.00800           0
      2665 MEMB     20       POPC     C312     CTL2    -0.180000       12.0110           0
      2666 MEMB     20       POPC     H12X     HAL2     0.900000E-01   1.00800           0
      2667 MEMB     20       POPC     H12Y     HAL2     0.900000E-01   1.00800           0
      2668 MEMB     20       POPC     C313     CTL2    -0.180000       12.0110           0
      2669 MEMB     20       POPC     H13X     HAL2     0.900000E-01   1.00800           0
      2670 MEMB     20       POPC     H13Y     HAL2     0.900000E-01   1.00800           0
      2671 MEMB     20       POPC     C314     CTL2    -0.180000       12.0110           0
      2672 MEMB     20       POPC     H14X     HAL2     0.900000E-01   1.00800           0
      2673 MEMB     20       POPC     H14Y     HAL2     0.900000E-01   1.00800           0
      2674 MEMB     20       POPC     C315     CTL2    -0.180000       12.0110           0
      2675 MEMB     20       POPC     H15X     HAL2     0.900000E-01   1.00800           0
      2676 MEMB     20       POPC     H15Y     HAL2     0.900000E-01   1.00800           0
      2677 MEMB     20       POPC     C316     CTL3    -0.270000       12.0110           0
      2678 MEMB     20       POPC     H16X     HAL3     0.900000E-01   1.00800           0
      2679 MEMB     20       POPC     H16Y     HAL3     0.900000E-01   1.00800           0
      2680 MEMB     20       POPC     H16Z     HAL3     0.900000E-01   1.00800           0
      2681 MEMB     21       POPC     N        NTL     -0.600000       14.0070           0
      2682 MEMB     21       POPC     C12      CTL2    -0.100000       12.0110           0
      2683 MEMB     21       POPC     H12A     HL       0.250000       1.00800           0
      2684 MEMB     21       POPC     H12B     HL       0.250000       1.00800           0
      2685 MEMB     21       POPC     C13      CTL5    -0.350000       12.0110           0
      2686 MEMB     21       POPC     H13A     HL       0.250000       1.00800           0
      2687 MEMB     21       POPC     H13B     HL       0.250000       1.00800           0
      2688 MEMB     21       POPC     H13C     HL       0.250000       1.00800           0
      2689 MEMB     21       POPC     C14      CTL5    -0.350000       12.0110           0
      2690 MEMB     21       POPC     H14A     HL       0.250000       1.00800           0
      2691 MEMB     21       POPC     H14B     HL       0.250000       1.00800           0
      2692 MEMB     21       POPC     H14C     HL       0.250000       1.00800           0
      2693 MEMB     21       POPC     C15      CTL5    -0.350000       12.0110           0
      2694 MEMB     21       POPC     H15A     HL       0.250000       1.00800           0
      2695 MEMB     21       POPC     H15B     HL       0.250000       1.00800           0
      2696 MEMB     21       POPC     H15C     HL       0.250000       1.00800           0
      2697 MEMB     21       POPC     C11      CTL2    -0.800000E-01   12.0110           0
      2698 MEMB     21       POPC     H11A     HAL2     0.900000E-01   1.00800           0
      2699 MEMB     21       POPC     H11B     HAL2     0.900000E-01   1.00800           0
      2700 MEMB     21       POPC     P        PL        1.50000       30.9740           0
      2701 MEMB     21       POPC     O13      O2L     -0.780000       15.9994           0
      2702 MEMB     21       POPC     O14      O2L     -0.780000       15.9994           0
      2703 MEMB     21       POPC     O12      OSLP    -0.570000       15.9994           0
      2704 MEMB     21       POPC     O11      OSLP    -0.570000       15.9994           0
      2705 MEMB     21       POPC     C1       CTL2    -0.800000E-01   12.0110           0
      2706 MEMB     21       POPC     HA       HAL2     0.900000E-01   1.00800           0
      2707 MEMB     21       POPC     HB       HAL2     0.900000E-01   1.00800           0
      2708 MEMB     21       POPC     C2       CTL1     0.170000       12.0110           0
      2709 MEMB     21       POPC     HS       HAL1     0.900000E-01   1.00800           0
      2710 MEMB     21       POPC     O21      OSL     -0.490000       15.9994           0
      2711 MEMB     21       POPC     C21      CL       0.900000       12.0110           0
      2712 MEMB     21       POPC     O22      OBL     -0.630000       15.9994           0
      2713 MEMB     21       POPC     C22      CTL2    -0.220000       12.0110           0
      2714 MEMB     21       POPC     H2R      HAL2     0.900000E-01   1.00800           0
      2715 MEMB     21       POPC     H2S      HAL2     0.900000E-01   1.00800           0
      2716 MEMB     21       POPC     C3       CTL2     0.800000E-01   12.0110           0
      2717 MEMB     21       POPC     HX       HAL2     0.900000E-01   1.00800           0
      2718 MEMB     21       POPC     HY       HAL2     0.900000E-01   1.00800           0
      2719 MEMB     21       POPC     O31      OSL     -0.490000       15.9994           0
      2720 MEMB     21       POPC     C31      CL       0.900000       12.0110           0
      2721 MEMB     21       POPC     O32      OBL     -0.630000       15.9994           0
      2722 MEMB     21       POPC     C32      CTL2    -0.220000       12.0110           0
      2723 MEMB     21       POPC     H2X      HAL2     0.900000E-01   1.00800           0
      2724 MEMB     21       POPC     H2Y      HAL2     0.900000E-01   1.00800           0
      2725 MEMB     21       POPC     C23      CTL2    -0.180000       12.0110           0
      2726 MEMB     21       POPC     H3R      HAL2     0.900000E-01   1.00800           0
      2727 MEMB     21       POPC     H3S      HAL2     0.900000E-01   1.00800           0
      2728 MEMB     21       POPC     C24      CTL2    -0.180000       12.0110           0
      2729 MEMB     21       POPC     H4R      HAL2     0.900000E-01   1.00800           0
      2730 MEMB     21       POPC     H4S      HAL2     0.900000E-01   1.00800           0
      2731 MEMB     21       POPC     C25      CTL2    -0.180000       12.0110           0
      2732 MEMB     21       POPC     H5R      HAL2     0.900000E-01   1.00800           0
      2733 MEMB     21       POPC     H5S      HAL2     0.900000E-01   1.00800           0
      2734 MEMB     21       POPC     C26      CTL2    -0.180000       12.0110           0
      2735 MEMB     21       POPC     H6R      HAL2     0.900000E-01   1.00800           0
      2736 MEMB     21       POPC     H6S      HAL2     0.900000E-01   1.00800           0
      2737 MEMB     21       POPC     C27      CTL2    -0.180000       12.0110           0
      2738 MEMB     21       POPC     H7R      HAL2     0.900000E-01   1.00800           0
      2739 MEMB     21       POPC     H7S      HAL2     0.900000E-01   1.00800           0
      2740 MEMB     21       POPC     C28      CTL2    -0.180000       12.0110           0
      2741 MEMB     21       POPC     H8R      HAL2     0.900000E-01   1.00800           0
      2742 MEMB     21       POPC     H8S      HAL2     0.900000E-01   1.00800           0
      2743 MEMB     21       POPC     C29      CEL1    -0.150000       12.0110           0
      2744 MEMB     21       POPC     H91      HEL1     0.150000       1.00800           0
      2745 MEMB     21       POPC     C210     CEL1    -0.150000       12.0110           0
      2746 MEMB     21       POPC     H101     HEL1     0.150000       1.00800           0
      2747 MEMB     21       POPC     C211     CTL2    -0.180000       12.0110           0
      2748 MEMB     21       POPC     H11R     HAL2     0.900000E-01   1.00800           0
      2749 MEMB     21       POPC     H11S     HAL2     0.900000E-01   1.00800           0
      2750 MEMB     21       POPC     C212     CTL2    -0.180000       12.0110           0
      2751 MEMB     21       POPC     H12R     HAL2     0.900000E-01   1.00800           0
      2752 MEMB     21       POPC     H12S     HAL2     0.900000E-01   1.00800           0
      2753 MEMB     21       POPC     C213     CTL2    -0.180000       12.0110           0
      2754 MEMB     21       POPC     H13R     HAL2     0.900000E-01   1.00800           0
      2755 MEMB     21       POPC     H13S     HAL2     0.900000E-01   1.00800           0
      2756 MEMB     21       POPC     C214     CTL2    -0.180000       12.0110           0
      2757 MEMB     21       POPC     H14R     HAL2     0.900000E-01   1.00800           0
      2758 MEMB     21       POPC     H14S     HAL2     0.900000E-01   1.00800           0
      2759 MEMB     21       POPC     C215     CTL2    -0.180000       12.0110           0
      2760 MEMB     21       POPC     H15R     HAL2     0.900000E-01   1.00800           0
      2761 MEMB     21       POPC     H15S     HAL2     0.900000E-01   1.00800           0
      2762 MEMB     21       POPC     C216     CTL2    -0.180000       12.0110           0
      2763 MEMB     21       POPC     H16R     HAL2     0.900000E-01   1.00800           0
      2764 MEMB     21       POPC     H16S     HAL2     0.900000E-01   1.00800           0
      2765 MEMB     21       POPC     C217     CTL2    -0.180000       12.0110           0
      2766 MEMB     21       POPC     H17R     HAL2     0.900000E-01   1.00800           0
      2767 MEMB     21       POPC     H17S     HAL2     0.900000E-01   1.00800           0
      2768 MEMB     21       POPC     C218     CTL3    -0.270000       12.0110           0
      2769 MEMB     21       POPC     H18R     HAL3     0.900000E-01   1.00800           0
      2770 MEMB     21       POPC     H18S     HAL3     0.900000E-01   1.00800           0
      2771 MEMB     21       POPC     H18T     HAL3     0.900000E-01   1.00800           0
      2772 MEMB     21       POPC     C33      CTL2    -0.180000       12.0110           0
      2773 MEMB     21       POPC     H3X      HAL2     0.900000E-01   1.00800           0
      2774 MEMB     21       POPC     H3Y      HAL2     0.900000E-01   1.00800           0
      2775 MEMB     21       POPC     C34      CTL2    -0.180000       12.0110           0
      2776 MEMB     21       POPC     H4X      HAL2     0.900000E-01   1.00800           0
      2777 MEMB     21       POPC     H4Y      HAL2     0.900000E-01   1.00800           0
      2778 MEMB     21       POPC     C35      CTL2    -0.180000       12.0110           0
      2779 MEMB     21       POPC     H5X      HAL2     0.900000E-01   1.00800           0
      2780 MEMB     21       POPC     H5Y      HAL2     0.900000E-01   1.00800           0
      2781 MEMB     21       POPC     C36      CTL2    -0.180000       12.0110           0
      2782 MEMB     21       POPC     H6X      HAL2     0.900000E-01   1.00800           0
      2783 MEMB     21       POPC     H6Y      HAL2     0.900000E-01   1.00800           0
      2784 MEMB     21       POPC     C37      CTL2    -0.180000       12.0110           0
      2785 MEMB     21       POPC     H7X      HAL2     0.900000E-01   1.00800           0
      2786 MEMB     21       POPC     H7Y      HAL2     0.900000E-01   1.00800           0
      2787 MEMB     21       POPC     C38      CTL2    -0.180000       12.0110           0
      2788 MEMB     21       POPC     H8X      HAL2     0.900000E-01   1.00800           0
      2789 MEMB     21       POPC     H8Y      HAL2     0.900000E-01   1.00800           0
      2790 MEMB     21       POPC     C39      CTL2    -0.180000       12.0110           0
      2791 MEMB     21       POPC     H9X      HAL2     0.900000E-01   1.00800           0
      2792 MEMB     21       POPC     H9Y      HAL2     0.900000E-01   1.00800           0
      2793 MEMB     21       POPC     C310     CTL2    -0.180000       12.0110           0
      2794 MEMB     21       POPC     H10X     HAL2     0.900000E-01   1.00800           0
      2795 MEMB     21       POPC     H10Y     HAL2     0.900000E-01   1.00800           0
      2796 MEMB     21       POPC     C311     CTL2    -0.180000       12.0110           0
      2797 MEMB     21       POPC     H11X     HAL2     0.900000E-01   1.00800           0
      2798 MEMB     21       POPC     H11Y     HAL2     0.900000E-01   1.00800           0
      2799 MEMB     21       POPC     C312     CTL2    -0.180000       12.0110           0
      2800 MEMB     21       POPC     H12X     HAL2     0.900000E-01   1.00800           0
      2801 MEMB     21       POPC     H12Y     HAL2     0.900000E-01   1.00800           0
      2802 MEMB     21       POPC     C313     CTL2    -0.180000       12.0110           0
      2803 MEMB     21       POPC     H13X     HAL2     0.900000E-01   1.00800           0
      2804 MEMB     21       POPC     H13Y     HAL2     0.900000E-01   1.00800           0
      2805 MEMB     21       POPC     C314     CTL2    -0.180000       12.0110           0
      2806 MEMB     21       POPC     H14X     HAL2     0.900000E-01   1.00800           0
      2807 MEMB     21       POPC     H14Y     HAL2     0.900000E-01   1.00800           0
      2808 MEMB     21       POPC     C315     CTL2    -0.180000       12.0110           0
      2809 MEMB     21       POPC     H15X     HAL2     0.900000E-01   1.00800           0
      2810 MEMB     21       POPC     H15Y     HAL2     0.900000E-01   1.00800           0
      2811 MEMB     21       POPC     C316     CTL3    -0.270000       12.0110           0
      2812 MEMB     21       POPC     H16X     HAL3     0.900000E-01   1.00800           0
      2813 MEMB     21       POPC     H16Y     HAL3     0.900000E-01   1.00800           0
      2814 MEMB     21       POPC     H16Z     HAL3     0.900000E-01   1.00800           0
      2815 MEMB     22       POPC     N        NTL     -0.600000       14.0070           0
      2816 MEMB     22       POPC     C12      CTL2    -0.100000       12.0110           0
      2817 MEMB     22       POPC     H12A     HL       0.250000       1.00800           0
      2818 MEMB     22       POPC     H12B     HL       0.250000       1.00800           0
      2819 MEMB     22       POPC     C13      CTL5    -0.350000       12.0110           0
      2820 MEMB     22       POPC     H13A     HL       0.250000       1.00800           0
      2821 MEMB     22       POPC     H13B     HL       0.250000       1.00800           0
      2822 MEMB     22       POPC     H13C     HL       0.250000       1.00800           0
      2823 MEMB     22       POPC     C14      CTL5    -0.350000       12.0110           0
      2824 MEMB     22       POPC     H14A     HL       0.250000       1.00800           0
      2825 MEMB     22       POPC     H14B     HL       0.250000       1.00800           0
      2826 MEMB     22       POPC     H14C     HL       0.250000       1.00800           0
      2827 MEMB     22       POPC     C15      CTL5    -0.350000       12.0110           0
      2828 MEMB     22       POPC     H15A     HL       0.250000       1.00800           0
      2829 MEMB     22       POPC     H15B     HL       0.250000       1.00800           0
      2830 MEMB     22       POPC     H15C     HL       0.250000       1.00800           0
      2831 MEMB     22       POPC     C11      CTL2    -0.800000E-01   12.0110           0
      2832 MEMB     22       POPC     H11A     HAL2     0.900000E-01   1.00800           0
      2833 MEMB     22       POPC     H11B     HAL2     0.900000E-01   1.00800           0
      2834 MEMB     22       POPC     P        PL        1.50000       30.9740           0
      2835 MEMB     22       POPC     O13      O2L     -0.780000       15.9994           0
      2836 MEMB     22       POPC     O14      O2L     -0.780000       15.9994           0
      2837 MEMB     22       POPC     O12      OSLP    -0.570000       15.9994           0
      2838 MEMB     22       POPC     O11      OSLP    -0.570000       15.9994           0
      2839 MEMB     22       POPC     C1       CTL2    -0.800000E-01   12.0110           0
      2840 MEMB     22       POPC     HA       HAL2     0.900000E-01   1.00800           0
      2841 MEMB     22       POPC     HB       HAL2     0.900000E-01   1.00800           0
      2842 MEMB     22       POPC     C2       CTL1     0.170000       12.0110           0
      2843 MEMB     22       POPC     HS       HAL1     0.900000E-01   1.00800           0
      2844 MEMB     22       POPC     O21      OSL     -0.490000       15.9994           0
      2845 MEMB     22       POPC     C21      CL       0.900000       12.0110           0
      2846 MEMB     22       POPC     O22      OBL     -0.630000       15.9994           0
      2847 MEMB     22       POPC     C22      CTL2    -0.220000       12.0110           0
      2848 MEMB     22       POPC     H2R      HAL2     0.900000E-01   1.00800           0
      2849 MEMB     22       POPC     H2S      HAL2     0.900000E-01   1.00800           0
      2850 MEMB     22       POPC     C3       CTL2     0.800000E-01   12.0110           0
      2851 MEMB     22       POPC     HX       HAL2     0.900000E-01   1.00800           0
      2852 MEMB     22       POPC     HY       HAL2     0.900000E-01   1.00800           0
      2853 MEMB     22       POPC     O31      OSL     -0.490000       15.9994           0
      2854 MEMB     22       POPC     C31      CL       0.900000       12.0110           0
      2855 MEMB     22       POPC     O32      OBL     -0.630000       15.9994           0
      2856 MEMB     22       POPC     C32      CTL2    -0.220000       12.0110           0
      2857 MEMB     22       POPC     H2X      HAL2     0.900000E-01   1.00800           0
      2858 MEMB     22       POPC     H2Y      HAL2     0.900000E-01   1.00800           0
      2859 MEMB     22       POPC     C23      CTL2    -0.180000       12.0110           0
      2860 MEMB     22       POPC     H3R      HAL2     0.900000E-01   1.00800           0
      2861 MEMB     22       POPC     H3S      HAL2     0.900000E-01   1.00800           0
      2862 MEMB     22       POPC     C24      CTL2    -0.180000       12.0110           0
      2863 MEMB     22       POPC     H4R      HAL2     0.900000E-01   1.00800           0
      2864 MEMB     22       POPC     H4S      HAL2     0.900000E-01   1.00800           0
      2865 MEMB     22       POPC     C25      CTL2    -0.180000       12.0110           0
      2866 MEMB     22       POPC     H5R      HAL2     0.900000E-01   1.00800           0
      2867 MEMB     22       POPC     H5S      HAL2     0.900000E-01   1.00800           0
      2868 MEMB     22       POPC     C26      CTL2    -0.180000       12.0110           0
      2869 MEMB     22       POPC     H6R      HAL2     0.900000E-01   1.00800           0
      2870 MEMB     22       POPC     H6S      HAL2     0.900000E-01   1.00800           0
      2871 MEMB     22       POPC     C27      CTL2    -0.180000       12.0110           0
      2872 MEMB     22       POPC     H7R      HAL2     0.900000E-01   1.00800           0
      2873 MEMB     22       POPC     H7S      HAL2     0.900000E-01   1.00800           0
      2874 MEMB     22       POPC     C28      CTL2    -0.180000       12.0110           0
      2875 MEMB     22       POPC     H8R      HAL2     0.900000E-01   1.00800           0
      2876 MEMB     22       POPC     H8S      HAL2     0.900000E-01   1.00800           0
      2877 MEMB     22       POPC     C29      CEL1    -0.150000       12.0110           0
      2878 MEMB     22       POPC     H91      HEL1     0.150000       1.00800           0
      2879 MEMB     22       POPC     C210     CEL1    -0.150000       12.0110           0
      2880 MEMB     22       POPC     H101     HEL1     0.150000       1.00800           0
      2881 MEMB     22       POPC     C211     CTL2    -0.180000       12.0110           0
      2882 MEMB     22       POPC     H11R     HAL2     0.900000E-01   1.00800           0
      2883 MEMB     22       POPC     H11S     HAL2     0.900000E-01   1.00800           0
      2884 MEMB     22       POPC     C212     CTL2    -0.180000       12.0110           0
      2885 MEMB     22       POPC     H12R     HAL2     0.900000E-01   1.00800           0
      2886 MEMB     22       POPC     H12S     HAL2     0.900000E-01   1.00800           0
      2887 MEMB     22       POPC     C213     CTL2    -0.180000       12.0110           0
      2888 MEMB     22       POPC     H13R     HAL2     0.900000E-01   1.00800           0
      2889 MEMB     22       POPC     H13S     HAL2     0.900000E-01   1.00800           0
      2890 MEMB     22       POPC     C214     CTL2    -0.180000       12.0110           0
      2891 MEMB     22       POPC     H14R     HAL2     0.900000E-01   1.00800           0
      2892 MEMB     22       POPC     H14S     HAL2     0.900000E-01   1.00800           0
      2893 MEMB     22       POPC     C215     CTL2    -0.180000       12.0110           0
      2894 MEMB     22       POPC     H15R     HAL2     0.900000E-01   1.00800           0
      2895 MEMB     22       POPC     H15S     HAL2     0.900000E-01   1.00800           0
      2896 MEMB     22       POPC     C216     CTL2    -0.180000       12.0110           0
      2897 MEMB     22       POPC     H16R     HAL2     0.900000E-01   1.00800           0
      2898 MEMB     22       POPC     H16S     HAL2     0.900000E-01   1.00800           0
      2899 MEMB     22       POPC     C217     CTL2    -0.180000       12.0110           0
      2900 MEMB     22       POPC     H17R     HAL2     0.900000E-01   1.00800           0
      2901 MEMB     22       POPC     H17S     HAL2     0.900000E-01   1.00800           0
      2902 MEMB     22       POPC     C218     CTL3    -0.270000       12.0110           0
      2903 MEMB     22       POPC     H18R     HAL3     0.900000E-01   1.00800           0
      2904 MEMB     22       POPC     H18S     HAL3     0.900000E-01   1.00800           0
      2905 MEMB     22       POPC     H18T     HAL3     0.900000E-01   1.00800           0
      2906 MEMB     22       POPC     C33      CTL2    -0.180000       12.0110           0
      2907 MEMB     22       POPC     H3X      HAL2     0.900000E-01   1.00800           0
      2908 MEMB     22       POPC     H3Y      HAL2     0.900000E-01   1.00800           0
      2909 MEMB     22       POPC     C34      CTL2    -0.180000       12.0110           0
      2910 MEMB     22       POPC     H4X      HAL2     0.900000E-01   1.00800           0
      2911 MEMB     22       POPC     H4Y      HAL2     0.900000E-01   1.00800           0
      2912 MEMB     22       POPC     C35      CTL2    -0.180000       12.0110           0
      2913 MEMB     22       POPC     H5X      HAL2     0.900000E-01   1.00800           0
      2914 MEMB     22       POPC     H5Y      HAL2     0.900000E-01   1.00800           0
      2915 MEMB     22       POPC     C36      CTL2    -0.180000       12.0110           0
      2916 MEMB     22       POPC     H6X      HAL2     0.900000E-01   1.00800           0
      2917 MEMB     22       POPC     H6Y      HAL2     0.900000E-01   1.00800           0
      2918 MEMB     22       POPC     C37      CTL2    -0.180000       12.0110           0
      2919 MEMB     22       POPC     H7X      HAL2     0.900000E-01   1.00800           0
      2920 MEMB     22       POPC     H7Y      HAL2     0.900000E-01   1.00800           0
      2921 MEMB     22       POPC     C38      CTL2    -0.180000       12.0110           0
      2922 MEMB     22       POPC     H8X      HAL2     0.900000E-01   1.00800           0
      2923 MEMB     22       POPC     H8Y      HAL2     0.900000E-01   1.00800           0
      2924 MEMB     22       POPC     C39      CTL2    -0.180000       12.0110           0
      2925 MEMB     22       POPC     H9X      HAL2     0.900000E-01   1.00800           0
      2926 MEMB     22       POPC     H9Y      HAL2     0.900000E-01   1.00800           0
      2927 MEMB     22       POPC     C310     CTL2    -0.180000       12.0110           0
      2928 MEMB     22       POPC     H10X     HAL2     0.900000E-01   1.00800           0
      2929 MEMB     22       POPC     H10Y     HAL2     0.900000E-01   1.00800           0
      2930 MEMB     22       POPC     C311     CTL2    -0.180000       12.0110           0
      2931 MEMB     22       POPC     H11X     HAL2     0.900000E-01   1.00800           0
      2932 MEMB     22       POPC     H11Y     HAL2     0.900000E-01   1.00800           0
      2933 MEMB     22       POPC     C312     CTL2    -0.180000       12.0110           0
      2934 MEMB     22       POPC     H12X     HAL2     0.900000E-01   1.00800           0
      2935 MEMB     22       POPC     H12Y     HAL2     0.900000E-01   1.00800           0
      2936 MEMB     22       POPC     C313     CTL2    -0.180000       12.0110           0
      2937 MEMB     22       POPC     H13X     HAL2     0.900000E-01   1.00800           0
      2938 MEMB     22       POPC     H13Y     HAL2     0.900000E-01   1.00800           0
      2939 MEMB     22       POPC     C314     CTL2    -0.180000       12.0110           0
      2940 MEMB     22       POPC     H14X     HAL2     0.900000E-01   1.00800           0
      2941 MEMB     22       POPC     H14Y     HAL2     0.900000E-01   1.00800           0
      2942 MEMB     22       POPC     C315     CTL2    -0.180000       12.0110           0
      2943 MEMB     22       POPC     H15X     HAL2     0.900000E-01   1.00800           0
      2944 MEMB     22       POPC     H15Y     HAL2     0.900000E-01   1.00800           0
      2945 MEMB     22       POPC     C316     CTL3    -0.270000       12.0110           0
      2946 MEMB     22       POPC     H16X     HAL3     0.900000E-01   1.00800           0
      2947 MEMB     22       POPC     H16Y     HAL3     0.900000E-01   1.00800           0
      2948 MEMB     22       POPC     H16Z     HAL3     0.900000E-01   1.00800           0
      2949 MEMB     23       POPC     N        NTL     -0.600000       14.0070           0
      2950 MEMB     23       POPC     C12      CTL2    -0.100000       12.0110           0
      2951 MEMB     23       POPC     H12A     HL       0.250000       1.00800           0
      2952 MEMB     23       POPC     H12B     HL       0.250000       1.00800           0
      2953 MEMB     23       POPC     C13      CTL5    -0.350000       12.0110           0
      2954 MEMB     23       POPC     H13A     HL       0.250000       1.00800           0
      2955 MEMB     23       POPC     H13B     HL       0.250000       1.00800           0
      2956 MEMB     23       POPC     H13C     HL       0.250000       1.00800           0
      2957 MEMB     23       POPC     C14      CTL5    -0.350000       12.0110           0
      2958 MEMB     23       POPC     H14A     HL       0.250000       1.00800           0
      2959 MEMB     23       POPC     H14B     HL       0.250000       1.00800           0
      2960 MEMB     23       POPC     H14C     HL       0.250000       1.00800           0
      2961 MEMB     23       POPC     C15      CTL5    -0.350000       12.0110           0
      2962 MEMB     23       POPC     H15A     HL       0.250000       1.00800           0
      2963 MEMB     23       POPC     H15B     HL       0.250000       1.00800           0
      2964 MEMB     23       POPC     H15C     HL       0.250000       1.00800           0
      2965 MEMB     23       POPC     C11      CTL2    -0.800000E-01   12.0110           0
      2966 MEMB     23       POPC     H11A     HAL2     0.900000E-01   1.00800           0
      2967 MEMB     23       POPC     H11B     HAL2     0.900000E-01   1.00800           0
      2968 MEMB     23       POPC     P        PL        1.50000       30.9740           0
      2969 MEMB     23       POPC     O13      O2L     -0.780000       15.9994           0
      2970 MEMB     23       POPC     O14      O2L     -0.780000       15.9994           0
      2971 MEMB     23       POPC     O12      OSLP    -0.570000       15.9994           0
      2972 MEMB     23       POPC     O11      OSLP    -0.570000       15.9994           0
      2973 MEMB     23       POPC     C1       CTL2    -0.800000E-01   12.0110           0
      2974 MEMB     23       POPC     HA       HAL2     0.900000E-01   1.00800           0
      2975 MEMB     23       POPC     HB       HAL2     0.900000E-01   1.00800           0
      2976 MEMB     23       POPC     C2       CTL1     0.170000       12.0110           0
      2977 MEMB     23       POPC     HS       HAL1     0.900000E-01   1.00800           0
      2978 MEMB     23       POPC     O21      OSL     -0.490000       15.9994           0
      2979 MEMB     23       POPC     C21      CL       0.900000       12.0110           0
      2980 MEMB     23       POPC     O22      OBL     -0.630000       15.9994           0
      2981 MEMB     23       POPC     C22      CTL2    -0.220000       12.0110           0
      2982 MEMB     23       POPC     H2R      HAL2     0.900000E-01   1.00800           0
      2983 MEMB     23       POPC     H2S      HAL2     0.900000E-01   1.00800           0
      2984 MEMB     23       POPC     C3       CTL2     0.800000E-01   12.0110           0
      2985 MEMB     23       POPC     HX       HAL2     0.900000E-01   1.00800           0
      2986 MEMB     23       POPC     HY       HAL2     0.900000E-01   1.00800           0
      2987 MEMB     23       POPC     O31      OSL     -0.490000       15.9994           0
      2988 MEMB     23       POPC     C31      CL       0.900000       12.0110           0
      2989 MEMB     23       POPC     O32      OBL     -0.630000       15.9994           0
      2990 MEMB     23       POPC     C32      CTL2    -0.220000       12.0110           0
      2991 MEMB     23       POPC     H2X      HAL2     0.900000E-01   1.00800           0
      2992 MEMB     23       POPC     H2Y      HAL2     0.900000E-01   1.00800           0
      2993 MEMB     23       POPC     C23      CTL2    -0.180000       12.0110           0
      2994 MEMB     23       POPC     H3R      HAL2     0.900000E-01   1.00800           0
      2995 MEMB     23       POPC     H3S      HAL2     0.900000E-01   1.00800           0
      2996 MEMB     23       POPC     C24      CTL2    -0.180000       12.0110           0
      2997 MEMB     23       POPC     H4R      HAL2     0.900000E-01   1.00800           0
      2998 MEMB     23       POPC     H4S      HAL2     0.900000E-01   1.00800           0
      2999 MEMB     23       POPC     C25      CTL2    -0.180000       12.0110           0
      3000 MEMB     23       POPC     H5R      HAL2     0.900000E-01   1.00800           0
      3001 MEMB     23       POPC     H5S      HAL2     0.900000E-01   1.00800           0
      3002 MEMB     23       POPC     C26      CTL2    -0.180000       12.0110           0
      3003 MEMB     23       POPC     H6R      HAL2     0.900000E-01   1.00800           0
      3004 MEMB     23       POPC     H6S      HAL2     0.900000E-01   1.00800           0
      3005 MEMB     23       POPC     C27      CTL2    -0.180000       12.0110           0
      3006 MEMB     23       POPC     H7R      HAL2     0.900000E-01   1.00800           0
      3007 MEMB     23       POPC     H7S      HAL2     0.900000E-01   1.00800           0
      3008 MEMB     23       POPC     C28      CTL2    -0.180000       12.0110           0
      3009 MEMB     23       POPC     H8R      HAL2     0.900000E-01   1.00800           0
      3010 MEMB     23       POPC     H8S      HAL2     0.900000E-01   1.00800           0
      3011 MEMB     23       POPC     C29      CEL1    -0.150000       12.0110           0
      3012 MEMB     23       POPC     H91      HEL1     0.150000       1.00800           0
      3013 MEMB     23       POPC     C210     CEL1    -0.150000       12.0110           0
      3014 MEMB     23       POPC     H101     HEL1     0.150000       1.00800           0
      3015 MEMB     23       POPC     C211     CTL2    -0.180000       12.0110           0
      3016 MEMB     23       POPC     H11R     HAL2     0.900000E-01   1.00800           0
      3017 MEMB     23       POPC     H11S     HAL2     0.900000E-01   1.00800           0
      3018 MEMB     23       POPC     C212     CTL2    -0.180000       12.0110           0
      3019 MEMB     23       POPC     H12R     HAL2     0.900000E-01   1.00800           0
      3020 MEMB     23       POPC     H12S     HAL2     0.900000E-01   1.00800           0
      3021 MEMB     23       POPC     C213     CTL2    -0.180000       12.0110           0
      3022 MEMB     23       POPC     H13R     HAL2     0.900000E-01   1.00800           0
      3023 MEMB     23       POPC     H13S     HAL2     0.900000E-01   1.00800           0
      3024 MEMB     23       POPC     C214     CTL2    -0.180000       12.0110           0
      3025 MEMB     23       POPC     H14R     HAL2     0.900000E-01   1.00800           0
      3026 MEMB     23       POPC     H14S     HAL2     0.900000E-01   1.00800           0
      3027 MEMB     23       POPC     C215     CTL2    -0.180000       12.0110           0
      3028 MEMB     23       POPC     H15R     HAL2     0.900000E-01   1.00800           0
      3029 MEMB     23       POPC     H15S     HAL2     0.900000E-01   1.00800           0
      3030 MEMB     23       POPC     C216     CTL2    -0.180000       12.0110           0
      3031 MEMB     23       POPC     H16R     HAL2     0.900000E-01   1.00800           0
      3032 MEMB     23       POPC     H16S     HAL2     0.900000E-01   1.00800           0
      3033 MEMB     23       POPC     C217     CTL2    -0.180000       12.0110           0
      3034 MEMB     23       POPC     H17R     HAL2     0.900000E-01   1.00800           0
      3035 MEMB     23       POPC     H17S     HAL2     0.900000E-01   1.00800           0
      3036 MEMB     23       POPC     C218     CTL3    -0.270000       12.0110           0
      3037 MEMB     23       POPC     H18R     HAL3     0.900000E-01   1.00800           0
      3038 MEMB     23       POPC     H18S     HAL3     0.900000E-01   1.00800           0
      3039 MEMB     23       POPC     H18T     HAL3     0.900000E-01   1.00800           0
      3040 MEMB     23       POPC     C33      CTL2    -0.180000       12.0110           0
      3041 MEMB     23       POPC     H3X      HAL2     0.900000E-01   1.00800           0
      3042 MEMB     23       POPC     H3Y      HAL2     0.900000E-01   1.00800           0
      3043 MEMB     23       POPC     C34      CTL2    -0.180000       12.0110           0
      3044 MEMB     23       POPC     H4X      HAL2     0.900000E-01   1.00800           0
      3045 MEMB     23       POPC     H4Y      HAL2     0.900000E-01   1.00800           0
      3046 MEMB     23       POPC     C35      CTL2    -0.180000       12.0110           0
      3047 MEMB     23       POPC     H5X      HAL2     0.900000E-01   1.00800           0
      3048 MEMB     23       POPC     H5Y      HAL2     0.900000E-01   1.00800           0
      3049 MEMB     23       POPC     C36      CTL2    -0.180000       12.0110           0
      3050 MEMB     23       POPC     H6X      HAL2     0.900000E-01   1.00800           0
      3051 MEMB     23       POPC     H6Y      HAL2     0.900000E-01   1.00800           0
      3052 MEMB     23       POPC     C37      CTL2    -0.180000       12.0110           0
      3053 MEMB     23       POPC     H7X      HAL2     0.900000E-01   1.00800           0
      3054 MEMB     23       POPC     H7Y      HAL2     0.900000E-01   1.00800           0
      3055 MEMB     23       POPC     C38      CTL2    -0.180000       12.0110           0
      3056 MEMB     23       POPC     H8X      HAL2     0.900000E-01   1.00800           0
      3057 MEMB     23       POPC     H8Y      HAL2     0.900000E-01   1.00800           0
      3058 MEMB     23       POPC     C39      CTL2    -0.180000       12.0110           0
      3059 MEMB     23       POPC     H9X      HAL2     0.900000E-01   1.00800           0
      3060 MEMB     23       POPC     H9Y      HAL2     0.900000E-01   1.00800           0
      3061 MEMB     23       POPC     C310     CTL2    -0.180000       12.0110           0
      3062 MEMB     23       POPC     H10X     HAL2     0.900000E-01   1.00800           0
      3063 MEMB     23       POPC     H10Y     HAL2     0.900000E-01   1.00800           0
      3064 MEMB     23       POPC     C311     CTL2    -0.180000       12.0110           0
      3065 MEMB     23       POPC     H11X     HAL2     0.900000E-01   1.00800           0
      3066 MEMB     23       POPC     H11Y     HAL2     0.900000E-01   1.00800           0
      3067 MEMB     23       POPC     C312     CTL2    -0.180000       12.0110           0
      3068 MEMB     23       POPC     H12X     HAL2     0.900000E-01   1.00800           0
      3069 MEMB     23       POPC     H12Y     HAL2     0.900000E-01   1.00800           0
      3070 MEMB     23       POPC     C313     CTL2    -0.180000       12.0110           0
      3071 MEMB     23       POPC     H13X     HAL2     0.900000E-01   1.00800           0
      3072 MEMB     23       POPC     H13Y     HAL2     0.900000E-01   1.00800           0
      3073 MEMB     23       POPC     C314     CTL2    -0.180000       12.0110           0
      3074 MEMB     23       POPC     H14X     HAL2     0.900000E-01   1.00800           0
      3075 MEMB     23       POPC     H14Y     HAL2     0.900000E-01   1.00800           0
      3076 MEMB     23       POPC     C315     CTL2    -0.180000       12.0110           0
      3077 MEMB     23       POPC     H15X     HAL2     0.900000E-01   1.00800           0
      3078 MEMB     23       POPC     H15Y     HAL2     0.900000E-01   1.00800           0
      3079 MEMB     23       POPC     C316     CTL3    -0.270000       12.0110           0
      3080 MEMB     23       POPC     H16X     HAL3     0.900000E-01   1.00800           0
      3081 MEMB     23       POPC     H16Y     HAL3     0.900000E-01   1.00800           0
      3082 MEMB     23       POPC     H16Z     HAL3     0.900000E-01   1.00800           0
      3083 MEMB     24       POPC     N        NTL     -0.600000       14.0070           0
      3084 MEMB     24       POPC     C12      CTL2    -0.100000       12.0110           0
      3085 MEMB     24       POPC     H12A     HL       0.250000       1.00800           0
      3086 MEMB     24       POPC     H12B     HL       0.250000       1.00800           0
      3087 MEMB     24       POPC     C13      CTL5    -0.350000       12.0110           0
      3088 MEMB     24       POPC     H13A     HL       0.250000       1.00800           0
      3089 MEMB     24       POPC     H13B     HL       0.250000       1.00800           0
      3090 MEMB     24       POPC     H13C     HL       0.250000       1.00800           0
      3091 MEMB     24       POPC     C14      CTL5    -0.350000       12.0110           0
      3092 MEMB     24       POPC     H14A     HL       0.250000       1.00800           0
      3093 MEMB     24       POPC     H14B     HL       0.250000       1.00800           0
      3094 MEMB     24       POPC     H14C     HL       0.250000       1.00800           0
      3095 MEMB     24       POPC     C15      CTL5    -0.350000       12.0110           0
      3096 MEMB     24       POPC     H15A     HL       0.250000       1.00800           0
      3097 MEMB     24       POPC     H15B     HL       0.250000       1.00800           0
      3098 MEMB     24       POPC     H15C     HL       0.250000       1.00800           0
      3099 MEMB     24       POPC     C11      CTL2    -0.800000E-01   12.0110           0
      3100 MEMB     24       POPC     H11A     HAL2     0.900000E-01   1.00800           0
      3101 MEMB     24       POPC     H11B     HAL2     0.900000E-01   1.00800           0
      3102 MEMB     24       POPC     P        PL        1.50000       30.9740           0
      3103 MEMB     24       POPC     O13      O2L     -0.780000       15.9994           0
      3104 MEMB     24       POPC     O14      O2L     -0.780000       15.9994           0
      3105 MEMB     24       POPC     O12      OSLP    -0.570000       15.9994           0
      3106 MEMB     24       POPC     O11      OSLP    -0.570000       15.9994           0
      3107 MEMB     24       POPC     C1       CTL2    -0.800000E-01   12.0110           0
      3108 MEMB     24       POPC     HA       HAL2     0.900000E-01   1.00800           0
      3109 MEMB     24       POPC     HB       HAL2     0.900000E-01   1.00800           0
      3110 MEMB     24       POPC     C2       CTL1     0.170000       12.0110           0
      3111 MEMB     24       POPC     HS       HAL1     0.900000E-01   1.00800           0
      3112 MEMB     24       POPC     O21      OSL     -0.490000       15.9994           0
      3113 MEMB     24       POPC     C21      CL       0.900000       12.0110           0
      3114 MEMB     24       POPC     O22      OBL     -0.630000       15.9994           0
      3115 MEMB     24       POPC     C22      CTL2    -0.220000       12.0110           0
      3116 MEMB     24       POPC     H2R      HAL2     0.900000E-01   1.00800           0
      3117 MEMB     24       POPC     H2S      HAL2     0.900000E-01   1.00800           0
      3118 MEMB     24       POPC     C3       CTL2     0.800000E-01   12.0110           0
      3119 MEMB     24       POPC     HX       HAL2     0.900000E-01   1.00800           0
      3120 MEMB     24       POPC     HY       HAL2     0.900000E-01   1.00800           0
      3121 MEMB     24       POPC     O31      OSL     -0.490000       15.9994           0
      3122 MEMB     24       POPC     C31      CL       0.900000       12.0110           0
      3123 MEMB     24       POPC     O32      OBL     -0.630000       15.9994           0
      3124 MEMB     24       POPC     C32      CTL2    -0.220000       12.0110           0
      3125 MEMB     24       POPC     H2X      HAL2     0.900000E-01   1.00800           0
      3126 MEMB     24       POPC     H2Y      HAL2     0.900000E-01   1.00800           0
      3127 MEMB     24       POPC     C23      CTL2    -0.180000       12.0110           0
      3128 MEMB     24       POPC     H3R      HAL2     0.900000E-01   1.00800           0
      3129 MEMB     24       POPC     H3S      HAL2     0.900000E-01   1.00800           0
      3130 MEMB     24       POPC     C24      CTL2    -0.180000       12.0110           0
      3131 MEMB     24       POPC     H4R      HAL2     0.900000E-01   1.00800           0
      3132 MEMB     24       POPC     H4S      HAL2     0.900000E-01   1.00800           0
      3133 MEMB     24       POPC     C25      CTL2    -0.180000       12.0110           0
      3134 MEMB     24       POPC     H5R      HAL2     0.900000E-01   1.00800           0
      3135 MEMB     24       POPC     H5S      HAL2     0.900000E-01   1.00800           0
      3136 MEMB     24       POPC     C26      CTL2    -0.180000       12.0110           0
      3137 MEMB     24       POPC     H6R      HAL2     0.900000E-01   1.00800           0
      3138 MEMB     24       POPC     H6S      HAL2     0.900000E-01   1.00800           0
      3139 MEMB     24       POPC     C27      CTL2    -0.180000       12.0110           0
      3140 MEMB     24       POPC     H7R      HAL2     0.900000E-01   1.00800           0
      3141 MEMB     24       POPC     H7S      HAL2     0.900000E-01   1.00800           0
      3142 MEMB     24       POPC     C28      CTL2    -0.180000       12.0110           0
      3143 MEMB     24       POPC     H8R      HAL2     0.900000E-01   1.00800           0
      3144 MEMB     24       POPC     H8S      HAL2     0.900000E-01   1.00800           0
      3145 MEMB     24       POPC     C29      CEL1    -0.150000       12.0110           0
      3146 MEMB     24       POPC     H91      HEL1     0.150000       1.00800           0
      3147 MEMB     24       POPC     C210     CEL1    -0.150000       12.0110           0
      3148 MEMB     24       POPC     H101     HEL1     0.150000       1.00800           0
      3149 MEMB     24       POPC     C211     CTL2    -0.180000       12.0110           0
      3150 MEMB     24       POPC     H11R     HAL2     0.900000E-01   1.00800           0
      3151 MEMB     24       POPC     H11S     HAL2     0.900000E-01   1.00800           0
      3152 MEMB     24       POPC     C212     CTL2    -0.180000       12.0110           0
      3153 MEMB     24       POPC     H12R     HAL2     0.900000E-01   1.00800           0
      3154 MEMB     24       POPC     H12S     HAL2     0.900000E-01   1.00800           0
      3155 MEMB     24       POPC     C213     CTL2    -0.180000       12.0110           0
      3156 MEMB     24       POPC     H13R     HAL2     0.900000E-01   1.00800           0
      3157 MEMB     24       POPC     H13S     HAL2     0.900000E-01   1.00800           0
      3158 MEMB     24       POPC     C214     CTL2    -0.180000       12.0110           0
      3159 MEMB     24       POPC     H14R     HAL2     0.900000E-01   1.00800           0
      3160 MEMB     24       POPC     H14S     HAL2     0.900000E-01   1.00800           0
      3161 MEMB     24       POPC     C215     CTL2    -0.180000       12.0110           0
      3162 MEMB     24       POPC     H15R     HAL2     0.900000E-01   1.00800           0
      3163 MEMB     24       POPC     H15S     HAL2     0.900000E-01   1.00800           0
      3164 MEMB     24       POPC     C216     CTL2    -0.180000       12.0110           0
      3165 MEMB     24       POPC     H16R     HAL2     0.900000E-01   1.00800           0
      3166 MEMB     24       POPC     H16S     HAL2     0.900000E-01   1.00800           0
      3167 MEMB     24       POPC     C217     CTL2    -0.180000       12.0110           0
      3168 MEMB     24       POPC     H17R     HAL2     0.900000E-01   1.00800           0
      3169 MEMB     24       POPC     H17S     HAL2     0.900000E-01   1.00800           0
      3170 MEMB     24       POPC     C218     CTL3    -0.270000       12.0110           0
      3171 MEMB     24       POPC     H18R     HAL3     0.900000E-01   1.00800           0
      3172 MEMB     24       POPC     H18S     HAL3     0.900000E-01   1.00800           0
      3173 MEMB     24       POPC     H18T     HAL3     0.900000E-01   1.00800           0
      3174 MEMB     24       POPC     C33      CTL2    -0.180000       12.0110           0
      3175 MEMB     24       POPC     H3X      HAL2     0.900000E-01   1.00800           0
      3176 MEMB     24       POPC     H3Y      HAL2     0.900000E-01   1.00800           0
      3177 MEMB     24       POPC     C34      CTL2    -0.180000       12.0110           0
      3178 MEMB     24       POPC     H4X      HAL2     0.900000E-01   1.00800           0
      3179 MEMB     24       POPC     H4Y      HAL2     0.900000E-01   1.00800           0
      3180 MEMB     24       POPC     C35      CTL2    -0.180000       12.0110           0
      3181 MEMB     24       POPC     H5X      HAL2     0.900000E-01   1.00800           0
      3182 MEMB     24       POPC     H5Y      HAL2     0.900000E-01   1.00800           0
      3183 MEMB     24       POPC     C36      CTL2    -0.180000       12.0110           0
      3184 MEMB     24       POPC     H6X      HAL2     0.900000E-01   1.00800           0
      3185 MEMB     24       POPC     H6Y      HAL2     0.900000E-01   1.00800           0
      3186 MEMB     24       POPC     C37      CTL2    -0.180000       12.0110           0
      3187 MEMB     24       POPC     H7X      HAL2     0.900000E-01   1.00800           0
      3188 MEMB     24       POPC     H7Y      HAL2     0.900000E-01   1.00800           0
      3189 MEMB     24       POPC     C38      CTL2    -0.180000       12.0110           0
      3190 MEMB     24       POPC     H8X      HAL2     0.900000E-01   1.00800           0
      3191 MEMB     24       POPC     H8Y      HAL2     0.900000E-01   1.00800           0
      3192 MEMB     24       POPC     C39      CTL2    -0.180000       12.0110           0
      3193 MEMB     24       POPC     H9X      HAL2     0.900000E-01   1.00800           0
      3194 MEMB     24       POPC     H9Y      HAL2     0.900000E-01   1.00800           0
      3195 MEMB     24       POPC     C310     CTL2    -0.180000       12.0110           0
      3196 MEMB     24       POPC     H10X     HAL2     0.900000E-01   1.00800           0
      3197 MEMB     24       POPC     H10Y     HAL2     0.900000E-01   1.00800           0
      3198 MEMB     24       POPC     C311     CTL2    -0.180000       12.0110           0
      3199 MEMB     24       POPC     H11X     HAL2     0.900000E-01   1.00800           0
      3200 MEMB     24       POPC     H11Y     HAL2     0.900000E-01   1.00800           0
      3201 MEMB     24       POPC     C312     CTL2    -0.180000       12.0110           0
      3202 MEMB     24       POPC     H12X     HAL2     0.900000E-01   1.00800           0
      3203 MEMB     24       POPC     H12Y     HAL2     0.900000E-01   1.00800           0
      3204 MEMB     24       POPC     C313     CTL2    -0.180000       12.0110           0
      3205 MEMB     24       POPC     H13X     HAL2     0.900000E-01   1.00800           0
      3206 MEMB     24       POPC     H13Y     HAL2     0.900000E-01   1.00800           0
      3207 MEMB     24       POPC     C314     CTL2    -0.180000       12.0110           0
      3208 MEMB     24       POPC     H14X     HAL2     0.900000E-01   1.00800           0
      3209 MEMB     24       POPC     H14Y     HAL2     0.900000E-01   1.00800           0
      3210 MEMB     24       POPC     C315     CTL2    -0.180000       12.0110           0
      3211 MEMB     24       POPC     H15X     HAL2     0.900000E-01   1.00800           0
      3212 MEMB     24       POPC     H15Y     HAL2     0.900000E-01   1.00800           0
      3213 MEMB     24       POPC     C316     CTL3    -0.270000       12.0110           0
      3214 MEMB     24       POPC     H16X     HAL3     0.900000E-01   1.00800           0
      3215 MEMB     24       POPC     H16Y     HAL3     0.900000E-01   1.00800           0
      3216 MEMB     24       POPC     H16Z     HAL3     0.900000E-01   1.00800           0
      3217 MEMB     25       POPC     N        NTL     -0.600000       14.0070           0
      3218 MEMB     25       POPC     C12      CTL2    -0.100000       12.0110           0
      3219 MEMB     25       POPC     H12A     HL       0.250000       1.00800           0
      3220 MEMB     25       POPC     H12B     HL       0.250000       1.00800           0
      3221 MEMB     25       POPC     C13      CTL5    -0.350000       12.0110           0
      3222 MEMB     25       POPC     H13A     HL       0.250000       1.00800           0
      3223 MEMB     25       POPC     H13B     HL       0.250000       1.00800           0
      3224 MEMB     25       POPC     H13C     HL       0.250000       1.00800           0
      3225 MEMB     25       POPC     C14      CTL5    -0.350000       12.0110           0
      3226 MEMB     25       POPC     H14A     HL       0.250000       1.00800           0
      3227 MEMB     25       POPC     H14B     HL       0.250000       1.00800           0
      3228 MEMB     25       POPC     H14C     HL       0.250000       1.00800           0
      3229 MEMB     25       POPC     C15      CTL5    -0.350000       12.0110           0
      3230 MEMB     25       POPC     H15A     HL       0.250000       1.00800           0
      3231 MEMB     25       POPC     H15B     HL       0.250000       1.00800           0
      3232 MEMB     25       POPC     H15C     HL       0.250000       1.00800           0
      3233 MEMB     25       POPC     C11      CTL2    -0.800000E-01   12.0110           0
      3234 MEMB     25       POPC     H11A     HAL2     0.900000E-01   1.00800           0
      3235 MEMB     25       POPC     H11B     HAL2     0.900000E-01   1.00800           0
      3236 MEMB     25       POPC     P        PL        1.50000       30.9740           0
      3237 MEMB     25       POPC     O13      O2L     -0.780000       15.9994           0
      3238 MEMB     25       POPC     O14      O2L     -0.780000       15.9994           0
      3239 MEMB     25       POPC     O12      OSLP    -0.570000       15.9994           0
      3240 MEMB     25       POPC     O11      OSLP    -0.570000       15.9994           0
      3241 MEMB     25       POPC     C1       CTL2    -0.800000E-01   12.0110           0
      3242 MEMB     25       POPC     HA       HAL2     0.900000E-01   1.00800           0
      3243 MEMB     25       POPC     HB       HAL2     0.900000E-01   1.00800           0
      3244 MEMB     25       POPC     C2       CTL1     0.170000       12.0110           0
      3245 MEMB     25       POPC     HS       HAL1     0.900000E-01   1.00800           0
      3246 MEMB     25       POPC     O21      OSL     -0.490000       15.9994           0
      3247 MEMB     25       POPC     C21      CL       0.900000       12.0110           0
      3248 MEMB     25       POPC     O22      OBL     -0.630000       15.9994           0
      3249 MEMB     25       POPC     C22      CTL2    -0.220000       12.0110           0
      3250 MEMB     25       POPC     H2R      HAL2     0.900000E-01   1.00800           0
      3251 MEMB     25       POPC     H2S      HAL2     0.900000E-01   1.00800           0
      3252 MEMB     25       POPC     C3       CTL2     0.800000E-01   12.0110           0
      3253 MEMB     25       POPC     HX       HAL2     0.900000E-01   1.00800           0
      3254 MEMB     25       POPC     HY       HAL2     0.900000E-01   1.00800           0
      3255 MEMB     25       POPC     O31      OSL     -0.490000       15.9994           0
      3256 MEMB     25       POPC     C31      CL       0.900000       12.0110           0
      3257 MEMB     25       POPC     O32      OBL     -0.630000       15.9994           0
      3258 MEMB     25       POPC     C32      CTL2    -0.220000       12.0110           0
      3259 MEMB     25       POPC     H2X      HAL2     0.900000E-01   1.00800           0
      3260 MEMB     25       POPC     H2Y      HAL2     0.900000E-01   1.00800           0
      3261 MEMB     25       POPC     C23      CTL2    -0.180000       12.0110           0
      3262 MEMB     25       POPC     H3R      HAL2     0.900000E-01   1.00800           0
      3263 MEMB     25       POPC     H3S      HAL2     0.900000E-01   1.00800           0
      3264 MEMB     25       POPC     C24      CTL2    -0.180000       12.0110           0
      3265 MEMB     25       POPC     H4R      HAL2     0.900000E-01   1.00800           0
      3266 MEMB     25       POPC     H4S      HAL2     0.900000E-01   1.00800           0
      3267 MEMB     25       POPC     C25      CTL2    -0.180000       12.0110           0
      3268 MEMB     25       POPC     H5R      HAL2     0.900000E-01   1.00800           0
      3269 MEMB     25       POPC     H5S      HAL2     0.900000E-01   1.00800           0
      3270 MEMB     25       POPC     C26      CTL2    -0.180000       12.0110           0
      3271 MEMB     25       POPC     H6R      HAL2     0.900000E-01   1.00800           0
      3272 MEMB     25       POPC     H6S      HAL2     0.900000E-01   1.00800           0
      3273 MEMB     25       POPC     C27      CTL2    -0.180000       12.0110           0
      3274 MEMB     25       POPC     H7R      HAL2     0.900000E-01   1.00800           0
      3275 MEMB     25       POPC     H7S      HAL2     0.900000E-01   1.00800           0
      3276 MEMB     25       POPC     C28      CTL2    -0.180000       12.0110           0
      3277 MEMB     25       POPC     H8R      HAL2     0.900000E-01   1.00800           0
      3278 MEMB     25       POPC     H8S      HAL2     0.900000E-01   1.00800           0
      3279 MEMB     25       POPC     C29      CEL1    -0.150000       12.0110           0
      3280 MEMB     25       POPC     H91      HEL1     0.150000       1.00800           0
      3281 MEMB     25       POPC     C210     CEL1    -0.150000       12.0110           0
      3282 MEMB     25       POPC     H101     HEL1     0.150000       1.00800           0
      3283 MEMB     25       POPC     C211     CTL2    -0.180000       12.0110           0
      3284 MEMB     25       POPC     H11R     HAL2     0.900000E-01   1.00800           0
      3285 MEMB     25       POPC     H11S     HAL2     0.900000E-01   1.00800           0
      3286 MEMB     25       POPC     C212     CTL2    -0.180000       12.0110           0
      3287 MEMB     25       POPC     H12R     HAL2     0.900000E-01   1.00800           0
      3288 MEMB     25       POPC     H12S     HAL2     0.900000E-01   1.00800           0
      3289 MEMB     25       POPC     C213     CTL2    -0.180000       12.0110           0
      3290 MEMB     25       POPC     H13R     HAL2     0.900000E-01   1.00800           0
      3291 MEMB     25       POPC     H13S     HAL2     0.900000E-01   1.00800           0
      3292 MEMB     25       POPC     C214     CTL2    -0.180000       12.0110           0
      3293 MEMB     25       POPC     H14R     HAL2     0.900000E-01   1.00800           0
      3294 MEMB     25       POPC     H14S     HAL2     0.900000E-01   1.00800           0
      3295 MEMB     25       POPC     C215     CTL2    -0.180000       12.0110           0
      3296 MEMB     25       POPC     H15R     HAL2     0.900000E-01   1.00800           0
      3297 MEMB     25       POPC     H15S     HAL2     0.900000E-01   1.00800           0
      3298 MEMB     25       POPC     C216     CTL2    -0.180000       12.0110           0
      3299 MEMB     25       POPC     H16R     HAL2     0.900000E-01   1.00800           0
      3300 MEMB     25       POPC     H16S     HAL2     0.900000E-01   1.00800           0
      3301 MEMB     25       POPC     C217     CTL2    -0.180000       12.0110           0
      3302 MEMB     25       POPC     H17R     HAL2     0.900000E-01   1.00800           0
      3303 MEMB     25       POPC     H17S     HAL2     0.900000E-01   1.00800           0
      3304 MEMB     25       POPC     C218     CTL3    -0.270000       12.0110           0
      3305 MEMB     25       POPC     H18R     HAL3     0.900000E-01   1.00800           0
      3306 MEMB     25       POPC     H18S     HAL3     0.900000E-01   1.00800           0
      3307 MEMB     25       POPC     H18T     HAL3     0.900000E-01   1.00800           0
      3308 MEMB     25       POPC     C33      CTL2    -0.180000       12.0110           0
      3309 MEMB     25       POPC     H3X      HAL2     0.900000E-01   1.00800           0
      3310 MEMB     25       POPC     H3Y      HAL2     0.900000E-01   1.00800           0
      3311 MEMB     25       POPC     C34      CTL2    -0.180000       12.0110           0
      3312 MEMB     25       POPC     H4X      HAL2     0.900000E-01   1.00800           0
      3313 MEMB     25       POPC     H4Y      HAL2     0.900000E-01   1.00800           0
      3314 MEMB     25       POPC     C35      CTL2    -0.180000       12.0110           0
      3315 MEMB     25       POPC     H5X      HAL2     0.900000E-01   1.00800           0
      3316 MEMB     25       POPC     H5Y      HAL2     0.900000E-01   1.00800           0
      3317 MEMB     25       POPC     C36      CTL2    -0.180000       12.0110           0
      3318 MEMB     25       POPC     H6X      HAL2     0.900000E-01   1.00800           0
      3319 MEMB     25       POPC     H6Y      HAL2     0.900000E-01   1.00800           0
      3320 MEMB     25       POPC     C37      CTL2    -0.180000       12.0110           0
      3321 MEMB     25       POPC     H7X      HAL2     0.900000E-01   1.00800           0
      3322 MEMB     25       POPC     H7Y      HAL2     0.900000E-01   1.00800           0
      3323 MEMB     25       POPC     C38      CTL2    -0.180000       12.0110           0
      3324 MEMB     25       POPC     H8X      HAL2     0.900000E-01   1.00800           0
      3325 MEMB     25       POPC     H8Y      HAL2     0.900000E-01   1.00800           0
      3326 MEMB     25       POPC     C39      CTL2    -0.180000       12.0110           0
      3327 MEMB     25       POPC     H9X      HAL2     0.900000E-01   1.00800           0
      3328 MEMB     25       POPC     H9Y      HAL2     0.900000E-01   1.00800           0
      3329 MEMB     25       POPC     C310     CTL2    -0.180000       12.0110           0
      3330 MEMB     25       POPC     H10X     HAL2     0.900000E-01   1.00800           0
      3331 MEMB     25       POPC     H10Y     HAL2     0.900000E-01   1.00800           0
      3332 MEMB     25       POPC     C311     CTL2    -0.180000       12.0110           0
      3333 MEMB     25       POPC     H11X     HAL2     0.900000E-01   1.00800           0
      3334 MEMB     25       POPC     H11Y     HAL2     0.900000E-01   1.00800           0
      3335 MEMB     25       POPC     C312     CTL2    -0.180000       12.0110           0
      3336 MEMB     25       POPC     H12X     HAL2     0.900000E-01   1.00800           0
      3337 MEMB     25       POPC     H12Y     HAL2     0.900000E-01   1.00800           0
      3338 MEMB     25       POPC     C313     CTL2    -0.180000       12.0110           0
      3339 MEMB     25       POPC     H13X     HAL2     0.900000E-01   1.00800           0
      3340 MEMB     25       POPC     H13Y     HAL2     0.900000E-01   1.00800           0
      3341 MEMB     25       POPC     C314     CTL2    -0.180000       12.0110           0
      3342 MEMB     25       POPC     H14X     HAL2     0.900000E-01   1.00800           0
      3343 MEMB     25       POPC     H14Y     HAL2     0.900000E-01   1.00800           0
      3344 MEMB     25       POPC     C315     CTL2    -0.180000       12.0110           0
      3345 MEMB     25       POPC     H15X     HAL2     0.900000E-01   1.00800           0
      3346 MEMB     25       POPC     H15Y     HAL2     0.900000E-01   1.00800           0
      3347 MEMB     25       POPC     C316     CTL3    -0.270000       12.0110           0
      3348 MEMB     25       POPC     H16X     HAL3     0.900000E-01   1.00800           0
      3349 MEMB     25       POPC     H16Y     HAL3     0.900000E-01   1.00800           0
      3350 MEMB     25       POPC     H16Z     HAL3     0.900000E-01   1.00800           0
      3351 MEMB     26       POPC     N        NTL     -0.600000       14.0070           0
      3352 MEMB     26       POPC     C12      CTL2    -0.100000       12.0110           0
      3353 MEMB     26       POPC     H12A     HL       0.250000       1.00800           0
      3354 MEMB     26       POPC     H12B     HL       0.250000       1.00800           0
      3355 MEMB     26       POPC     C13      CTL5    -0.350000       12.0110           0
      3356 MEMB     26       POPC     H13A     HL       0.250000       1.00800           0
      3357 MEMB     26       POPC     H13B     HL       0.250000       1.00800           0
      3358 MEMB     26       POPC     H13C     HL       0.250000       1.00800           0
      3359 MEMB     26       POPC     C14      CTL5    -0.350000       12.0110           0
      3360 MEMB     26       POPC     H14A     HL       0.250000       1.00800           0
      3361 MEMB     26       POPC     H14B     HL       0.250000       1.00800           0
      3362 MEMB     26       POPC     H14C     HL       0.250000       1.00800           0
      3363 MEMB     26       POPC     C15      CTL5    -0.350000       12.0110           0
      3364 MEMB     26       POPC     H15A     HL       0.250000       1.00800           0
      3365 MEMB     26       POPC     H15B     HL       0.250000       1.00800           0
      3366 MEMB     26       POPC     H15C     HL       0.250000       1.00800           0
      3367 MEMB     26       POPC     C11      CTL2    -0.800000E-01   12.0110           0
      3368 MEMB     26       POPC     H11A     HAL2     0.900000E-01   1.00800           0
      3369 MEMB     26       POPC     H11B     HAL2     0.900000E-01   1.00800           0
      3370 MEMB     26       POPC     P        PL        1.50000       30.9740           0
      3371 MEMB     26       POPC     O13      O2L     -0.780000       15.9994           0
      3372 MEMB     26       POPC     O14      O2L     -0.780000       15.9994           0
      3373 MEMB     26       POPC     O12      OSLP    -0.570000       15.9994           0
      3374 MEMB     26       POPC     O11      OSLP    -0.570000       15.9994           0
      3375 MEMB     26       POPC     C1       CTL2    -0.800000E-01   12.0110           0
      3376 MEMB     26       POPC     HA       HAL2     0.900000E-01   1.00800           0
      3377 MEMB     26       POPC     HB       HAL2     0.900000E-01   1.00800           0
      3378 MEMB     26       POPC     C2       CTL1     0.170000       12.0110           0
      3379 MEMB     26       POPC     HS       HAL1     0.900000E-01   1.00800           0
      3380 MEMB     26       POPC     O21      OSL     -0.490000       15.9994           0
      3381 MEMB     26       POPC     C21      CL       0.900000       12.0110           0
      3382 MEMB     26       POPC     O22      OBL     -0.630000       15.9994           0
      3383 MEMB     26       POPC     C22      CTL2    -0.220000       12.0110           0
      3384 MEMB     26       POPC     H2R      HAL2     0.900000E-01   1.00800           0
      3385 MEMB     26       POPC     H2S      HAL2     0.900000E-01   1.00800           0
      3386 MEMB     26       POPC     C3       CTL2     0.800000E-01   12.0110           0
      3387 MEMB     26       POPC     HX       HAL2     0.900000E-01   1.00800           0
      3388 MEMB     26       POPC     HY       HAL2     0.900000E-01   1.00800           0
      3389 MEMB     26       POPC     O31      OSL     -0.490000       15.9994           0
      3390 MEMB     26       POPC     C31      CL       0.900000       12.0110           0
      3391 MEMB     26       POPC     O32      OBL     -0.630000       15.9994           0
      3392 MEMB     26       POPC     C32      CTL2    -0.220000       12.0110           0
      3393 MEMB     26       POPC     H2X      HAL2     0.900000E-01   1.00800           0
      3394 MEMB     26       POPC     H2Y      HAL2     0.900000E-01   1.00800           0
      3395 MEMB     26       POPC     C23      CTL2    -0.180000       12.0110           0
      3396 MEMB     26       POPC     H3R      HAL2     0.900000E-01   1.00800           0
      3397 MEMB     26       POPC     H3S      HAL2     0.900000E-01   1.00800           0
      3398 MEMB     26       POPC     C24      CTL2    -0.180000       12.0110           0
      3399 MEMB     26       POPC     H4R      HAL2     0.900000E-01   1.00800           0
      3400 MEMB     26       POPC     H4S      HAL2     0.900000E-01   1.00800           0
      3401 MEMB     26       POPC     C25      CTL2    -0.180000       12.0110           0
      3402 MEMB     26       POPC     H5R      HAL2     0.900000E-01   1.00800           0
      3403 MEMB     26       POPC     H5S      HAL2     0.900000E-01   1.00800           0
      3404 MEMB     26       POPC     C26      CTL2    -0.180000       12.0110           0
      3405 MEMB     26       POPC     H6R      HAL2     0.900000E-01   1.00800           0
      3406 MEMB     26       POPC     H6S      HAL2     0.900000E-01   1.00800           0
      3407 MEMB     26       POPC     C27      CTL2    -0.180000       12.0110           0
      3408 MEMB     26       POPC     H7R      HAL2     0.900000E-01   1.00800           0
      3409 MEMB     26       POPC     H7S      HAL2     0.900000E-01   1.00800           0
      3410 MEMB     26       POPC     C28      CTL2    -0.180000       12.0110           0
      3411 MEMB     26       POPC     H8R      HAL2     0.900000E-01   1.00800           0
      3412 MEMB     26       POPC     H8S      HAL2     0.900000E-01   1.00800           0
      3413 MEMB     26       POPC     C29      CEL1    -0.150000       12.0110           0
      3414 MEMB     26       POPC     H91      HEL1     0.150000       1.00800           0
      3415 MEMB     26       POPC     C210     CEL1    -0.150000       12.0110           0
      3416 MEMB     26       POPC     H101     HEL1     0.150000       1.00800           0
      3417 MEMB     26       POPC     C211     CTL2    -0.180000       12.0110           0
      3418 MEMB     26       POPC     H11R     HAL2     0.900000E-01   1.00800           0
      3419 MEMB     26       POPC     H11S     HAL2     0.900000E-01   1.00800           0
      3420 MEMB     26       POPC     C212     CTL2    -0.180000       12.0110           0
      3421 MEMB     26       POPC     H12R     HAL2     0.900000E-01   1.00800           0
      3422 MEMB     26       POPC     H12S     HAL2     0.900000E-01   1.00800           0
      3423 MEMB     26       POPC     C213     CTL2    -0.180000       12.0110           0
      3424 MEMB     26       POPC     H13R     HAL2     0.900000E-01   1.00800           0
      3425 MEMB     26       POPC     H13S     HAL2     0.900000E-01   1.00800           0
      3426 MEMB     26       POPC     C214     CTL2    -0.180000       12.0110           0
      3427 MEMB     26       POPC     H14R     HAL2     0.900000E-01   1.00800           0
      3428 MEMB     26       POPC     H14S     HAL2     0.900000E-01   1.00800           0
      3429 MEMB     26       POPC     C215     CTL2    -0.180000       12.0110           0
      3430 MEMB     26       POPC     H15R     HAL2     0.900000E-01   1.00800           0
      3431 MEMB     26       POPC     H15S     HAL2     0.900000E-01   1.00800           0
      3432 MEMB     26       POPC     C216     CTL2    -0.180000       12.0110           0
      3433 MEMB     26       POPC     H16R     HAL2     0.900000E-01   1.00800           0
      3434 MEMB     26       POPC     H16S     HAL2     0.900000E-01   1.00800           0
      3435 MEMB     26       POPC     C217     CTL2    -0.180000       12.0110           0
      3436 MEMB     26       POPC     H17R     HAL2     0.900000E-01   1.00800           0
      3437 MEMB     26       POPC     H17S     HAL2     0.900000E-01   1.00800           0
      3438 MEMB     26       POPC     C218     CTL3    -0.270000       12.0110           0
      3439 MEMB     26       POPC     H18R     HAL3     0.900000E-01   1.00800           0
      3440 MEMB     26       POPC     H18S     HAL3     0.900000E-01   1.00800           0
      3441 MEMB     26       POPC     H18T     HAL3     0.900000E-01   1.00800           0
      3442 MEMB     26       POPC     C33      CTL2    -0.180000       12.0110           0
      3443 MEMB     26       POPC     H3X      HAL2     0.900000E-01   1.00800           0
      3444 MEMB     26       POPC     H3Y      HAL2     0.900000E-01   1.00800           0
      3445 MEMB     26       POPC     C34      CTL2    -0.180000       12.0110           0
      3446 MEMB     26       POPC     H4X      HAL2     0.900000E-01   1.00800           0
      3447 MEMB     26       POPC     H4Y      HAL2     0.900000E-01   1.00800           0
      3448 MEMB     26       POPC     C35      CTL2    -0.180000       12.0110           0
      3449 MEMB     26       POPC     H5X      HAL2     0.900000E-01   1.00800           0
      3450 MEMB     26       POPC     H5Y      HAL2     0.900000E-01   1.00800           0
      3451 MEMB     26       POPC     C36      CTL2    -0.180000       12.0110           0
      3452 MEMB     26       POPC     H6X      HAL2     0.900000E-01   1.00800           0
      3453 MEMB     26       POPC     H6Y      HAL2     0.900000E-01   1.00800           0
      3454 MEMB     26       POPC     C37      CTL2    -0.180000       12.0110           0
      3455 MEMB     26       POPC     H7X      HAL2     0.900000E-01   1.00800           0
      3456 MEMB     26       POPC     H7Y      HAL2     0.900000E-01   1.00800           0
      3457 MEMB     26       POPC     C38      CTL2    -0.180000       12.0110           0
      3458 MEMB     26       POPC     H8X      HAL2     0.900000E-01   1.00800           0
      3459 MEMB     26       POPC     H8Y      HAL2     0.900000E-01   1.00800           0
      3460 MEMB     26       POPC     C39      CTL2    -0.180000       12.0110           0
      3461 MEMB     26       POPC     H9X      HAL2     0.900000E-01   1.00800           0
      3462 MEMB     26       POPC     H9Y      HAL2     0.900000E-01   1.00800           0
      3463 MEMB     26       POPC     C310     CTL2    -0.180000       12.0110           0
      3464 MEMB     26       POPC     H10X     HAL2     0.900000E-01   1.00800           0
      3465 MEMB     26       POPC     H10Y     HAL2     0.900000E-01   1.00800           0
      3466 MEMB     26       POPC     C311     CTL2    -0.180000       12.0110           0
      3467 MEMB     26       POPC     H11X     HAL2     0.900000E-01   1.00800           0
      3468 MEMB     26       POPC     H11Y     HAL2     0.900000E-01   1.00800           0
      3469 MEMB     26       POPC     C312     CTL2    -0.180000       12.0110           0
      3470 MEMB     26       POPC     H12X     HAL2     0.900000E-01   1.00800           0
      3471 MEMB     26       POPC     H12Y     HAL2     0.900000E-01   1.00800           0
      3472 MEMB     26       POPC     C313     CTL2    -0.180000       12.0110           0
      3473 MEMB     26       POPC     H13X     HAL2     0.900000E-01   1.00800           0
      3474 MEMB     26       POPC     H13Y     HAL2     0.900000E-01   1.00800           0
      3475 MEMB     26       POPC     C314     CTL2    -0.180000       12.0110           0
      3476 MEMB     26       POPC     H14X     HAL2     0.900000E-01   1.00800           0
      3477 MEMB     26       POPC     H14Y     HAL2     0.900000E-01   1.00800           0
      3478 MEMB     26       POPC     C315     CTL2    -0.180000       12.0110           0
      3479 MEMB     26       POPC     H15X     HAL2     0.900000E-01   1.00800           0
      3480 MEMB     26       POPC     H15Y     HAL2     0.900000E-01   1.00800           0
      3481 MEMB     26       POPC     C316     CTL3    -0.270000       12.0110           0
      3482 MEMB     26       POPC     H16X     HAL3     0.900000E-01   1.00800           0
      3483 MEMB     26       POPC     H16Y     HAL3     0.900000E-01   1.00800           0
      3484 MEMB     26       POPC     H16Z     HAL3     0.900000E-01   1.00800           0
      3485 MEMB     27       POPC     N        NTL     -0.600000       14.0070           0
      3486 MEMB     27       POPC     C12      CTL2    -0.100000       12.0110           0
      3487 MEMB     27       POPC     H12A     HL       0.250000       1.00800           0
      3488 MEMB     27       POPC     H12B     HL       0.250000       1.00800           0
      3489 MEMB     27       POPC     C13      CTL5    -0.350000       12.0110           0
      3490 MEMB     27       POPC     H13A     HL       0.250000       1.00800           0
      3491 MEMB     27       POPC     H13B     HL       0.250000       1.00800           0
      3492 MEMB     27       POPC     H13C     HL       0.250000       1.00800           0
      3493 MEMB     27       POPC     C14      CTL5    -0.350000       12.0110           0
      3494 MEMB     27       POPC     H14A     HL       0.250000       1.00800           0
      3495 MEMB     27       POPC     H14B     HL       0.250000       1.00800           0
      3496 MEMB     27       POPC     H14C     HL       0.250000       1.00800           0
      3497 MEMB     27       POPC     C15      CTL5    -0.350000       12.0110           0
      3498 MEMB     27       POPC     H15A     HL       0.250000       1.00800           0
      3499 MEMB     27       POPC     H15B     HL       0.250000       1.00800           0
      3500 MEMB     27       POPC     H15C     HL       0.250000       1.00800           0
      3501 MEMB     27       POPC     C11      CTL2    -0.800000E-01   12.0110           0
      3502 MEMB     27       POPC     H11A     HAL2     0.900000E-01   1.00800           0
      3503 MEMB     27       POPC     H11B     HAL2     0.900000E-01   1.00800           0
      3504 MEMB     27       POPC     P        PL        1.50000       30.9740           0
      3505 MEMB     27       POPC     O13      O2L     -0.780000       15.9994           0
      3506 MEMB     27       POPC     O14      O2L     -0.780000       15.9994           0
      3507 MEMB     27       POPC     O12      OSLP    -0.570000       15.9994           0
      3508 MEMB     27       POPC     O11      OSLP    -0.570000       15.9994           0
      3509 MEMB     27       POPC     C1       CTL2    -0.800000E-01   12.0110           0
      3510 MEMB     27       POPC     HA       HAL2     0.900000E-01   1.00800           0
      3511 MEMB     27       POPC     HB       HAL2     0.900000E-01   1.00800           0
      3512 MEMB     27       POPC     C2       CTL1     0.170000       12.0110           0
      3513 MEMB     27       POPC     HS       HAL1     0.900000E-01   1.00800           0
      3514 MEMB     27       POPC     O21      OSL     -0.490000       15.9994           0
      3515 MEMB     27       POPC     C21      CL       0.900000       12.0110           0
      3516 MEMB     27       POPC     O22      OBL     -0.630000       15.9994           0
      3517 MEMB     27       POPC     C22      CTL2    -0.220000       12.0110           0
      3518 MEMB     27       POPC     H2R      HAL2     0.900000E-01   1.00800           0
      3519 MEMB     27       POPC     H2S      HAL2     0.900000E-01   1.00800           0
      3520 MEMB     27       POPC     C3       CTL2     0.800000E-01   12.0110           0
      3521 MEMB     27       POPC     HX       HAL2     0.900000E-01   1.00800           0
      3522 MEMB     27       POPC     HY       HAL2     0.900000E-01   1.00800           0
      3523 MEMB     27       POPC     O31      OSL     -0.490000       15.9994           0
      3524 MEMB     27       POPC     C31      CL       0.900000       12.0110           0
      3525 MEMB     27       POPC     O32      OBL     -0.630000       15.9994           0
      3526 MEMB     27       POPC     C32      CTL2    -0.220000       12.0110           0
      3527 MEMB     27       POPC     H2X      HAL2     0.900000E-01   1.00800           0
      3528 MEMB     27       POPC     H2Y      HAL2     0.900000E-01   1.00800           0
      3529 MEMB     27       POPC     C23      CTL2    -0.180000       12.0110           0
      3530 MEMB     27       POPC     H3R      HAL2     0.900000E-01   1.00800           0
      3531 MEMB     27       POPC     H3S      HAL2     0.900000E-01   1.00800           0
      3532 MEMB     27       POPC     C24      CTL2    -0.180000       12.0110           0
      3533 MEMB     27       POPC     H4R      HAL2     0.900000E-01   1.00800           0
      3534 MEMB     27       POPC     H4S      HAL2     0.900000E-01   1.00800           0
      3535 MEMB     27       POPC     C25      CTL2    -0.180000       12.0110           0
      3536 MEMB     27       POPC     H5R      HAL2     0.900000E-01   1.00800           0
      3537 MEMB     27       POPC     H5S      HAL2     0.900000E-01   1.00800           0
      3538 MEMB     27       POPC     C26      CTL2    -0.180000       12.0110           0
      3539 MEMB     27       POPC     H6R      HAL2     0.900000E-01   1.00800           0
      3540 MEMB     27       POPC     H6S      HAL2     0.900000E-01   1.00800           0
      3541 MEMB     27       POPC     C27      CTL2    -0.180000       12.0110           0
      3542 MEMB     27       POPC     H7R      HAL2     0.900000E-01   1.00800           0
      3543 MEMB     27       POPC     H7S      HAL2     0.900000E-01   1.00800           0
      3544 MEMB     27       POPC     C28      CTL2    -0.180000       12.0110           0
      3545 MEMB     27       POPC     H8R      HAL2     0.900000E-01   1.00800           0
      3546 MEMB     27       POPC     H8S      HAL2     0.900000E-01   1.00800           0
      3547 MEMB     27       POPC     C29      CEL1    -0.150000       12.0110           0
      3548 MEMB     27       POPC     H91      HEL1     0.150000       1.00800           0
      3549 MEMB     27       POPC     C210     CEL1    -0.150000       12.0110           0
      3550 MEMB     27       POPC     H101     HEL1     0.150000       1.00800           0
      3551 MEMB     27       POPC     C211     CTL2    -0.180000       12.0110           0
      3552 MEMB     27       POPC     H11R     HAL2     0.900000E-01   1.00800           0
      3553 MEMB     27       POPC     H11S     HAL2     0.900000E-01   1.00800           0
      3554 MEMB     27       POPC     C212     CTL2    -0.180000       12.0110           0
      3555 MEMB     27       POPC     H12R     HAL2     0.900000E-01   1.00800           0
      3556 MEMB     27       POPC     H12S     HAL2     0.900000E-01   1.00800           0
      3557 MEMB     27       POPC     C213     CTL2    -0.180000       12.0110           0
      3558 MEMB     27       POPC     H13R     HAL2     0.900000E-01   1.00800           0
      3559 MEMB     27       POPC     H13S     HAL2     0.900000E-01   1.00800           0
      3560 MEMB     27       POPC     C214     CTL2    -0.180000       12.0110           0
      3561 MEMB     27       POPC     H14R     HAL2     0.900000E-01   1.00800           0
      3562 MEMB     27       POPC     H14S     HAL2     0.900000E-01   1.00800           0
      3563 MEMB     27       POPC     C215     CTL2    -0.180000       12.0110           0
      3564 MEMB     27       POPC     H15R     HAL2     0.900000E-01   1.00800           0
      3565 MEMB     27       POPC     H15S     HAL2     0.900000E-01   1.00800           0
      3566 MEMB     27       POPC     C216     CTL2    -0.180000       12.0110           0
      3567 MEMB     27       POPC     H16R     HAL2     0.900000E-01   1.00800           0
      3568 MEMB     27       POPC     H16S     HAL2     0.900000E-01   1.00800           0
      3569 MEMB     27       POPC     C217     CTL2    -0.180000       12.0110           0
      3570 MEMB     27       POPC     H17R     HAL2     0.900000E-01   1.00800           0
      3571 MEMB     27       POPC     H17S     HAL2     0.900000E-01   1.00800           0
      3572 MEMB     27       POPC     C218     CTL3    -0.270000       12.0110           0
      3573 MEMB     27       POPC     H18R     HAL3     0.900000E-01   1.00800           0
      3574 MEMB     27       POPC     H18S     HAL3     0.900000E-01   1.00800           0
      3575 MEMB     27       POPC     H18T     HAL3     0.900000E-01   1.00800           0
      3576 MEMB     27       POPC     C33      CTL2    -0.180000       12.0110           0
      3577 MEMB     27       POPC     H3X      HAL2     0.900000E-01   1.00800           0
      3578 MEMB     27       POPC     H3Y      HAL2     0.900000E-01   1.00800           0
      3579 MEMB     27       POPC     C34      CTL2    -0.180000       12.0110           0
      3580 MEMB     27       POPC     H4X      HAL2     0.900000E-01   1.00800           0
      3581 MEMB     27       POPC     H4Y      HAL2     0.900000E-01   1.00800           0
      3582 MEMB     27       POPC     C35      CTL2    -0.180000       12.0110           0
      3583 MEMB     27       POPC     H5X      HAL2     0.900000E-01   1.00800           0
      3584 MEMB     27       POPC     H5Y      HAL2     0.900000E-01   1.00800           0
      3585 MEMB     27       POPC     C36      CTL2    -0.180000       12.0110           0
      3586 MEMB     27       POPC     H6X      HAL2     0.900000E-01   1.00800           0
      3587 MEMB     27       POPC     H6Y      HAL2     0.900000E-01   1.00800           0
      3588 MEMB     27       POPC     C37      CTL2    -0.180000       12.0110           0
      3589 MEMB     27       POPC     H7X      HAL2     0.900000E-01   1.00800           0
      3590 MEMB     27       POPC     H7Y      HAL2     0.900000E-01   1.00800           0
      3591 MEMB     27       POPC     C38      CTL2    -0.180000       12.0110           0
      3592 MEMB     27       POPC     H8X      HAL2     0.900000E-01   1.00800           0
      3593 MEMB     27       POPC     H8Y      HAL2     0.900000E-01   1.00800           0
      3594 MEMB     27       POPC     C39      CTL2    -0.180000       12.0110           0
      3595 MEMB     27       POPC     H9X      HAL2     0.900000E-01   1.00800           0
      3596 MEMB     27       POPC     H9Y      HAL2     0.900000E-01   1.00800           0
      3597 MEMB     27       POPC     C310     CTL2    -0.180000       12.0110           0
      3598 MEMB     27       POPC     H10X     HAL2     0.900000E-01   1.00800           0
      3599 MEMB     27       POPC     H10Y     HAL2     0.900000E-01   1.00800           0
      3600 MEMB     27       POPC     C311     CTL2    -0.180000       12.0110           0
      3601 MEMB     27       POPC     H11X     HAL2     0.900000E-01   1.00800           0
      3602 MEMB     27       POPC     H11Y     HAL2     0.900000E-01   1.00800           0
      3603 MEMB     27       POPC     C312     CTL2    -0.180000       12.0110           0
      3604 MEMB     27       POPC     H12X     HAL2     0.900000E-01   1.00800           0
      3605 MEMB     27       POPC     H12Y     HAL2     0.900000E-01   1.00800           0
      3606 MEMB     27       POPC     C313     CTL2    -0.180000       12.0110           0
      3607 MEMB     27       POPC     H13X     HAL2     0.900000E-01   1.00800           0
      3608 MEMB     27       POPC     H13Y     HAL2     0.900000E-01   1.00800           0
      3609 MEMB     27       POPC     C314     CTL2    -0.180000       12.0110           0
      3610 MEMB     27       POPC     H14X     HAL2     0.900000E-01   1.00800           0
      3611 MEMB     27       POPC     H14Y     HAL2     0.900000E-01   1.00800           0
      3612 MEMB     27       POPC     C315     CTL2    -0.180000       12.0110           0
      3613 MEMB     27       POPC     H15X     HAL2     0.900000E-01   1.00800           0
      3614 MEMB     27       POPC     H15Y     HAL2     0.900000E-01   1.00800           0
      3615 MEMB     27       POPC     C316     CTL3    -0.270000       12.0110           0
      3616 MEMB     27       POPC     H16X     HAL3     0.900000E-01   1.00800           0
      3617 MEMB     27       POPC     H16Y     HAL3     0.900000E-01   1.00800           0
      3618 MEMB     27       POPC     H16Z     HAL3     0.900000E-01   1.00800           0
      3619 MEMB     28       POPC     N        NTL     -0.600000       14.0070           0
      3620 MEMB     28       POPC     C12      CTL2    -0.100000       12.0110           0
      3621 MEMB     28       POPC     H12A     HL       0.250000       1.00800           0
      3622 MEMB     28       POPC     H12B     HL       0.250000       1.00800           0
      3623 MEMB     28       POPC     C13      CTL5    -0.350000       12.0110           0
      3624 MEMB     28       POPC     H13A     HL       0.250000       1.00800           0
      3625 MEMB     28       POPC     H13B     HL       0.250000       1.00800           0
      3626 MEMB     28       POPC     H13C     HL       0.250000       1.00800           0
      3627 MEMB     28       POPC     C14      CTL5    -0.350000       12.0110           0
      3628 MEMB     28       POPC     H14A     HL       0.250000       1.00800           0
      3629 MEMB     28       POPC     H14B     HL       0.250000       1.00800           0
      3630 MEMB     28       POPC     H14C     HL       0.250000       1.00800           0
      3631 MEMB     28       POPC     C15      CTL5    -0.350000       12.0110           0
      3632 MEMB     28       POPC     H15A     HL       0.250000       1.00800           0
      3633 MEMB     28       POPC     H15B     HL       0.250000       1.00800           0
      3634 MEMB     28       POPC     H15C     HL       0.250000       1.00800           0
      3635 MEMB     28       POPC     C11      CTL2    -0.800000E-01   12.0110           0
      3636 MEMB     28       POPC     H11A     HAL2     0.900000E-01   1.00800           0
      3637 MEMB     28       POPC     H11B     HAL2     0.900000E-01   1.00800           0
      3638 MEMB     28       POPC     P        PL        1.50000       30.9740           0
      3639 MEMB     28       POPC     O13      O2L     -0.780000       15.9994           0
      3640 MEMB     28       POPC     O14      O2L     -0.780000       15.9994           0
      3641 MEMB     28       POPC     O12      OSLP    -0.570000       15.9994           0
      3642 MEMB     28       POPC     O11      OSLP    -0.570000       15.9994           0
      3643 MEMB     28       POPC     C1       CTL2    -0.800000E-01   12.0110           0
      3644 MEMB     28       POPC     HA       HAL2     0.900000E-01   1.00800           0
      3645 MEMB     28       POPC     HB       HAL2     0.900000E-01   1.00800           0
      3646 MEMB     28       POPC     C2       CTL1     0.170000       12.0110           0
      3647 MEMB     28       POPC     HS       HAL1     0.900000E-01   1.00800           0
      3648 MEMB     28       POPC     O21      OSL     -0.490000       15.9994           0
      3649 MEMB     28       POPC     C21      CL       0.900000       12.0110           0
      3650 MEMB     28       POPC     O22      OBL     -0.630000       15.9994           0
      3651 MEMB     28       POPC     C22      CTL2    -0.220000       12.0110           0
      3652 MEMB     28       POPC     H2R      HAL2     0.900000E-01   1.00800           0
      3653 MEMB     28       POPC     H2S      HAL2     0.900000E-01   1.00800           0
      3654 MEMB     28       POPC     C3       CTL2     0.800000E-01   12.0110           0
      3655 MEMB     28       POPC     HX       HAL2     0.900000E-01   1.00800           0
      3656 MEMB     28       POPC     HY       HAL2     0.900000E-01   1.00800           0
      3657 MEMB     28       POPC     O31      OSL     -0.490000       15.9994           0
      3658 MEMB     28       POPC     C31      CL       0.900000       12.0110           0
      3659 MEMB     28       POPC     O32      OBL     -0.630000       15.9994           0
      3660 MEMB     28       POPC     C32      CTL2    -0.220000       12.0110           0
      3661 MEMB     28       POPC     H2X      HAL2     0.900000E-01   1.00800           0
      3662 MEMB     28       POPC     H2Y      HAL2     0.900000E-01   1.00800           0
      3663 MEMB     28       POPC     C23      CTL2    -0.180000       12.0110           0
      3664 MEMB     28       POPC     H3R      HAL2     0.900000E-01   1.00800           0
      3665 MEMB     28       POPC     H3S      HAL2     0.900000E-01   1.00800           0
      3666 MEMB     28       POPC     C24      CTL2    -0.180000       12.0110           0
      3667 MEMB     28       POPC     H4R      HAL2     0.900000E-01   1.00800           0
      3668 MEMB     28       POPC     H4S      HAL2     0.900000E-01   1.00800           0
      3669 MEMB     28       POPC     C25      CTL2    -0.180000       12.0110           0
      3670 MEMB     28       POPC     H5R      HAL2     0.900000E-01   1.00800           0
      3671 MEMB     28       POPC     H5S      HAL2     0.900000E-01   1.00800           0
      3672 MEMB     28       POPC     C26      CTL2    -0.180000       12.0110           0
      3673 MEMB     28       POPC     H6R      HAL2     0.900000E-01   1.00800           0
      3674 MEMB     28       POPC     H6S      HAL2     0.900000E-01   1.00800           0
      3675 MEMB     28       POPC     C27      CTL2    -0.180000       12.0110           0
      3676 MEMB     28       POPC     H7R      HAL2     0.900000E-01   1.00800           0
      3677 MEMB     28       POPC     H7S      HAL2     0.900000E-01   1.00800           0
      3678 MEMB     28       POPC     C28      CTL2    -0.180000       12.0110           0
      3679 MEMB     28       POPC     H8R      HAL2     0.900000E-01   1.00800           0
      3680 MEMB     28       POPC     H8S      HAL2     0.900000E-01   1.00800           0
      3681 MEMB     28       POPC     C29      CEL1    -0.150000       12.0110           0
      3682 MEMB     28       POPC     H91      HEL1     0.150000       1.00800           0
      3683 MEMB     28       POPC     C210     CEL1    -0.150000       12.0110           0
      3684 MEMB     28       POPC     H101     HEL1     0.150000       1.00800           0
      3685 MEMB     28       POPC     C211     CTL2    -0.180000       12.0110           0
      3686 MEMB     28       POPC     H11R     HAL2     0.900000E-01   1.00800           0
      3687 MEMB     28       POPC     H11S     HAL2     0.900000E-01   1.00800           0
      3688 MEMB     28       POPC     C212     CTL2    -0.180000       12.0110           0
      3689 MEMB     28       POPC     H12R     HAL2     0.900000E-01   1.00800           0
      3690 MEMB     28       POPC     H12S     HAL2     0.900000E-01   1.00800           0
      3691 MEMB     28       POPC     C213     CTL2    -0.180000       12.0110           0
      3692 MEMB     28       POPC     H13R     HAL2     0.900000E-01   1.00800           0
      3693 MEMB     28       POPC     H13S     HAL2     0.900000E-01   1.00800           0
      3694 MEMB     28       POPC     C214     CTL2    -0.180000       12.0110           0
      3695 MEMB     28       POPC     H14R     HAL2     0.900000E-01   1.00800           0
      3696 MEMB     28       POPC     H14S     HAL2     0.900000E-01   1.00800           0
      3697 MEMB     28       POPC     C215     CTL2    -0.180000       12.0110           0
      3698 MEMB     28       POPC     H15R     HAL2     0.900000E-01   1.00800           0
      3699 MEMB     28       POPC     H15S     HAL2     0.900000E-01   1.00800           0
      3700 MEMB     28       POPC     C216     CTL2    -0.180000       12.0110           0
      3701 MEMB     28       POPC     H16R     HAL2     0.900000E-01   1.00800           0
      3702 MEMB     28       POPC     H16S     HAL2     0.900000E-01   1.00800           0
      3703 MEMB     28       POPC     C217     CTL2    -0.180000       12.0110           0
      3704 MEMB     28       POPC     H17R     HAL2     0.900000E-01   1.00800           0
      3705 MEMB     28       POPC     H17S     HAL2     0.900000E-01   1.00800           0
      3706 MEMB     28       POPC     C218     CTL3    -0.270000       12.0110           0
      3707 MEMB     28       POPC     H18R     HAL3     0.900000E-01   1.00800           0
      3708 MEMB     28       POPC     H18S     HAL3     0.900000E-01   1.00800           0
      3709 MEMB     28       POPC     H18T     HAL3     0.900000E-01   1.00800           0
      3710 MEMB     28       POPC     C33      CTL2    -0.180000       12.0110           0
      3711 MEMB     28       POPC     H3X      HAL2     0.900000E-01   1.00800           0
      3712 MEMB     28       POPC     H3Y      HAL2     0.900000E-01   1.00800           0
      3713 MEMB     28       POPC     C34      CTL2    -0.180000       12.0110           0
      3714 MEMB     28       POPC     H4X      HAL2     0.900000E-01   1.00800           0
      3715 MEMB     28       POPC     H4Y      HAL2     0.900000E-01   1.00800           0
      3716 MEMB     28       POPC     C35      CTL2    -0.180000       12.0110           0
      3717 MEMB     28       POPC     H5X      HAL2     0.900000E-01   1.00800           0
      3718 MEMB     28       POPC     H5Y      HAL2     0.900000E-01   1.00800           0
      3719 MEMB     28       POPC     C36      CTL2    -0.180000       12.0110           0
      3720 MEMB     28       POPC     H6X      HAL2     0.900000E-01   1.00800           0
      3721 MEMB     28       POPC     H6Y      HAL2     0.900000E-01   1.00800           0
      3722 MEMB     28       POPC     C37      CTL2    -0.180000       12.0110           0
      3723 MEMB     28       POPC     H7X      HAL2     0.900000E-01   1.00800           0
      3724 MEMB     28       POPC     H7Y      HAL2     0.900000E-01   1.00800           0
      3725 MEMB     28       POPC     C38      CTL2    -0.180000       12.0110           0
      3726 MEMB     28       POPC     H8X      HAL2     0.900000E-01   1.00800           0
      3727 MEMB     28       POPC     H8Y      HAL2     0.900000E-01   1.00800           0
      3728 MEMB     28       POPC     C39      CTL2    -0.180000       12.0110           0
      3729 MEMB     28       POPC     H9X      HAL2     0.900000E-01   1.00800           0
      3730 MEMB     28       POPC     H9Y      HAL2     0.900000E-01   1.00800           0
      3731 MEMB     28       POPC     C310     CTL2    -0.180000       12.0110           0
      3732 MEMB     28       POPC     H10X     HAL2     0.900000E-01   1.00800           0
      3733 MEMB     28       POPC     H10Y     HAL2     0.900000E-01   1.00800           0
      3734 MEMB     28       POPC     C311     CTL2    -0.180000       12.0110           0
      3735 MEMB     28       POPC     H11X     HAL2     0.900000E-01   1.00800           0
      3736 MEMB     28       POPC     H11Y     HAL2     0.900000E-01   1.00800           0
      3737 MEMB     28       POPC     C312     CTL2    -0.180000       12.0110           0
      3738 MEMB     28       POPC     H12X     HAL2     0.900000E-01   1.00800           0
      3739 MEMB     28       POPC     H12Y     HAL2     0.900000E-01   1.00800           0
      3740 MEMB     28       POPC     C313     CTL2    -0.180000       12.0110           0
      3741 MEMB     28       POPC     H13X     HAL2     0.900000E-01   1.00800           0
      3742 MEMB     28       POPC     H13Y     HAL2     0.900000E-01   1.00800           0
      3743 MEMB     28       POPC     C314     CTL2    -0.180000       12.0110           0
      3744 MEMB     28       POPC     H14X     HAL2     0.900000E-01   1.00800           0
      3745 MEMB     28       POPC     H14Y     HAL2     0.900000E-01   1.00800           0
      3746 MEMB     28       POPC     C315     CTL2    -0.180000       12.0110           0
      3747 MEMB     28       POPC     H15X     HAL2     0.900000E-01   1.00800           0
      3748 MEMB     28       POPC     H15Y     HAL2     0.900000E-01   1.00800           0
      3749 MEMB     28       POPC     C316     CTL3    -0.270000       12.0110           0
      3750 MEMB     28       POPC     H16X     HAL3     0.900000E-01   1.00800           0
      3751 MEMB     28       POPC     H16Y     HAL3     0.900000E-01   1.00800           0
      3752 MEMB     28       POPC     H16Z     HAL3     0.900000E-01   1.00800           0
      3753 MEMB     29       POPC     N        NTL     -0.600000       14.0070           0
      3754 MEMB     29       POPC     C12      CTL2    -0.100000       12.0110           0
      3755 MEMB     29       POPC     H12A     HL       0.250000       1.00800           0
      3756 MEMB     29       POPC     H12B     HL       0.250000       1.00800           0
      3757 MEMB     29       POPC     C13      CTL5    -0.350000       12.0110           0
      3758 MEMB     29       POPC     H13A     HL       0.250000       1.00800           0
      3759 MEMB     29       POPC     H13B     HL       0.250000       1.00800           0
      3760 MEMB     29       POPC     H13C     HL       0.250000       1.00800           0
      3761 MEMB     29       POPC     C14      CTL5    -0.350000       12.0110           0
      3762 MEMB     29       POPC     H14A     HL       0.250000       1.00800           0
      3763 MEMB     29       POPC     H14B     HL       0.250000       1.00800           0
      3764 MEMB     29       POPC     H14C     HL       0.250000       1.00800           0
      3765 MEMB     29       POPC     C15      CTL5    -0.350000       12.0110           0
      3766 MEMB     29       POPC     H15A     HL       0.250000       1.00800           0
      3767 MEMB     29       POPC     H15B     HL       0.250000       1.00800           0
      3768 MEMB     29       POPC     H15C     HL       0.250000       1.00800           0
      3769 MEMB     29       POPC     C11      CTL2    -0.800000E-01   12.0110           0
      3770 MEMB     29       POPC     H11A     HAL2     0.900000E-01   1.00800           0
      3771 MEMB     29       POPC     H11B     HAL2     0.900000E-01   1.00800           0
      3772 MEMB     29       POPC     P        PL        1.50000       30.9740           0
      3773 MEMB     29       POPC     O13      O2L     -0.780000       15.9994           0
      3774 MEMB     29       POPC     O14      O2L     -0.780000       15.9994           0
      3775 MEMB     29       POPC     O12      OSLP    -0.570000       15.9994           0
      3776 MEMB     29       POPC     O11      OSLP    -0.570000       15.9994           0
      3777 MEMB     29       POPC     C1       CTL2    -0.800000E-01   12.0110           0
      3778 MEMB     29       POPC     HA       HAL2     0.900000E-01   1.00800           0
      3779 MEMB     29       POPC     HB       HAL2     0.900000E-01   1.00800           0
      3780 MEMB     29       POPC     C2       CTL1     0.170000       12.0110           0
      3781 MEMB     29       POPC     HS       HAL1     0.900000E-01   1.00800           0
      3782 MEMB     29       POPC     O21      OSL     -0.490000       15.9994           0
      3783 MEMB     29       POPC     C21      CL       0.900000       12.0110           0
      3784 MEMB     29       POPC     O22      OBL     -0.630000       15.9994           0
      3785 MEMB     29       POPC     C22      CTL2    -0.220000       12.0110           0
      3786 MEMB     29       POPC     H2R      HAL2     0.900000E-01   1.00800           0
      3787 MEMB     29       POPC     H2S      HAL2     0.900000E-01   1.00800           0
      3788 MEMB     29       POPC     C3       CTL2     0.800000E-01   12.0110           0
      3789 MEMB     29       POPC     HX       HAL2     0.900000E-01   1.00800           0
      3790 MEMB     29       POPC     HY       HAL2     0.900000E-01   1.00800           0
      3791 MEMB     29       POPC     O31      OSL     -0.490000       15.9994           0
      3792 MEMB     29       POPC     C31      CL       0.900000       12.0110           0
      3793 MEMB     29       POPC     O32      OBL     -0.630000       15.9994           0
      3794 MEMB     29       POPC     C32      CTL2    -0.220000       12.0110           0
      3795 MEMB     29       POPC     H2X      HAL2     0.900000E-01   1.00800           0
      3796 MEMB     29       POPC     H2Y      HAL2     0.900000E-01   1.00800           0
      3797 MEMB     29       POPC     C23      CTL2    -0.180000       12.0110           0
      3798 MEMB     29       POPC     H3R      HAL2     0.900000E-01   1.00800           0
      3799 MEMB     29       POPC     H3S      HAL2     0.900000E-01   1.00800           0
      3800 MEMB     29       POPC     C24      CTL2    -0.180000       12.0110           0
      3801 MEMB     29       POPC     H4R      HAL2     0.900000E-01   1.00800           0
      3802 MEMB     29       POPC     H4S      HAL2     0.900000E-01   1.00800           0
      3803 MEMB     29       POPC     C25      CTL2    -0.180000       12.0110           0
      3804 MEMB     29       POPC     H5R      HAL2     0.900000E-01   1.00800           0
      3805 MEMB     29       POPC     H5S      HAL2     0.900000E-01   1.00800           0
      3806 MEMB     29       POPC     C26      CTL2    -0.180000       12.0110           0
      3807 MEMB     29       POPC     H6R      HAL2     0.900000E-01   1.00800           0
      3808 MEMB     29       POPC     H6S      HAL2     0.900000E-01   1.00800           0
      3809 MEMB     29       POPC     C27      CTL2    -0.180000       12.0110           0
      3810 MEMB     29       POPC     H7R      HAL2     0.900000E-01   1.00800           0
      3811 MEMB     29       POPC     H7S      HAL2     0.900000E-01   1.00800           0
      3812 MEMB     29       POPC     C28      CTL2    -0.180000       12.0110           0
      3813 MEMB     29       POPC     H8R      HAL2     0.900000E-01   1.00800           0
      3814 MEMB     29       POPC     H8S      HAL2     0.900000E-01   1.00800           0
      3815 MEMB     29       POPC     C29      CEL1    -0.150000       12.0110           0
      3816 MEMB     29       POPC     H91      HEL1     0.150000       1.00800           0
      3817 MEMB     29       POPC     C210     CEL1    -0.150000       12.0110           0
      3818 MEMB     29       POPC     H101     HEL1     0.150000       1.00800           0
      3819 MEMB     29       POPC     C211     CTL2    -0.180000       12.0110           0
      3820 MEMB     29       POPC     H11R     HAL2     0.900000E-01   1.00800           0
      3821 MEMB     29       POPC     H11S     HAL2     0.900000E-01   1.00800           0
      3822 MEMB     29       POPC     C212     CTL2    -0.180000       12.0110           0
      3823 MEMB     29       POPC     H12R     HAL2     0.900000E-01   1.00800           0
      3824 MEMB     29       POPC     H12S     HAL2     0.900000E-01   1.00800           0
      3825 MEMB     29       POPC     C213     CTL2    -0.180000       12.0110           0
      3826 MEMB     29       POPC     H13R     HAL2     0.900000E-01   1.00800           0
      3827 MEMB     29       POPC     H13S     HAL2     0.900000E-01   1.00800           0
      3828 MEMB     29       POPC     C214     CTL2    -0.180000       12.0110           0
      3829 MEMB     29       POPC     H14R     HAL2     0.900000E-01   1.00800           0
      3830 MEMB     29       POPC     H14S     HAL2     0.900000E-01   1.00800           0
      3831 MEMB     29       POPC     C215     CTL2    -0.180000       12.0110           0
      3832 MEMB     29       POPC     H15R     HAL2     0.900000E-01   1.00800           0
      3833 MEMB     29       POPC     H15S     HAL2     0.900000E-01   1.00800           0
      3834 MEMB     29       POPC     C216     CTL2    -0.180000       12.0110           0
      3835 MEMB     29       POPC     H16R     HAL2     0.900000E-01   1.00800           0
      3836 MEMB     29       POPC     H16S     HAL2     0.900000E-01   1.00800           0
      3837 MEMB     29       POPC     C217     CTL2    -0.180000       12.0110           0
      3838 MEMB     29       POPC     H17R     HAL2     0.900000E-01   1.00800           0
      3839 MEMB     29       POPC     H17S     HAL2     0.900000E-01   1.00800           0
      3840 MEMB     29       POPC     C218     CTL3    -0.270000       12.0110           0
      3841 MEMB     29       POPC     H18R     HAL3     0.900000E-01   1.00800           0
      3842 MEMB     29       POPC     H18S     HAL3     0.900000E-01   1.00800           0
      3843 MEMB     29       POPC     H18T     HAL3     0.900000E-01   1.00800           0
      3844 MEMB     29       POPC     C33      CTL2    -0.180000       12.0110           0
      3845 MEMB     29       POPC     H3X      HAL2     0.900000E-01   1.00800           0
      3846 MEMB     29       POPC     H3Y      HAL2     0.900000E-01   1.00800           0
      3847 MEMB     29       POPC     C34      CTL2    -0.180000       12.0110           0
      3848 MEMB     29       POPC     H4X      HAL2     0.900000E-01   1.00800           0
      3849 MEMB     29       POPC     H4Y      HAL2     0.900000E-01   1.00800           0
      3850 MEMB     29       POPC     C35      CTL2    -0.180000       12.0110           0
      3851 MEMB     29       POPC     H5X      HAL2     0.900000E-01   1.00800           0
      3852 MEMB     29       POPC     H5Y      HAL2     0.900000E-01   1.00800           0
      3853 MEMB     29       POPC     C36      CTL2    -0.180000       12.0110           0
      3854 MEMB     29       POPC     H6X      HAL2     0.900000E-01   1.00800           0
      3855 MEMB     29       POPC     H6Y      HAL2     0.900000E-01   1.00800           0
      3856 MEMB     29       POPC     C37      CTL2    -0.180000       12.0110           0
      3857 MEMB     29       POPC     H7X      HAL2     0.900000E-01   1.00800           0
      3858 MEMB     29       POPC     H7Y      HAL2     0.900000E-01   1.00800           0
      3859 MEMB     29       POPC     C38      CTL2    -0.180000       12.0110           0
      3860 MEMB     29       POPC     H8X      HAL2     0.900000E-01   1.00800           0
      3861 MEMB     29       POPC     H8Y      HAL2     0.900000E-01   1.00800           0
      3862 MEMB     29       POPC     C39      CTL2    -0.180000       12.0110           0
      3863 MEMB     29       POPC     H9X      HAL2     0.900000E-01   1.00800           0
      3864 MEMB     29       POPC     H9Y      HAL2     0.900000E-01   1.00800           0
      3865 MEMB     29       POPC     C310     CTL2    -0.180000       12.0110           0
      3866 MEMB     29       POPC     H10X     HAL2     0.900000E-01   1.00800           0
      3867 MEMB     29       POPC     H10Y     HAL2     0.900000E-01   1.00800           0
      3868 MEMB     29       POPC     C311     CTL2    -0.180000       12.0110           0
      3869 MEMB     29       POPC     H11X     HAL2     0.900000E-01   1.00800           0
      3870 MEMB     29       POPC     H11Y     HAL2     0.900000E-01   1.00800           0
      3871 MEMB     29       POPC     C312     CTL2    -0.180000       12.0110           0
      3872 MEMB     29       POPC     H12X     HAL2     0.900000E-01   1.00800           0
      3873 MEMB     29       POPC     H12Y     HAL2     0.900000E-01   1.00800           0
      3874 MEMB     29       POPC     C313     CTL2    -0.180000       12.0110           0
      3875 MEMB     29       POPC     H13X     HAL2     0.900000E-01   1.00800           0
      3876 MEMB     29       POPC     H13Y     HAL2     0.900000E-01   1.00800           0
      3877 MEMB     29       POPC     C314     CTL2    -0.180000       12.0110           0
      3878 MEMB     29       POPC     H14X     HAL2     0.900000E-01   1.00800           0
      3879 MEMB     29       POPC     H14Y     HAL2     0.900000E-01   1.00800           0
      3880 MEMB     29       POPC     C315     CTL2    -0.180000       12.0110           0
      3881 MEMB     29       POPC     H15X     HAL2     0.900000E-01   1.00800           0
      3882 MEMB     29       POPC     H15Y     HAL2     0.900000E-01   1.00800           0
      3883 MEMB     29       POPC     C316     CTL3    -0.270000       12.0110           0
      3884 MEMB     29       POPC     H16X     HAL3     0.900000E-01   1.00800           0
      3885 MEMB     29       POPC     H16Y     HAL3     0.900000E-01   1.00800           0
      3886 MEMB     29       POPC     H16Z     HAL3     0.900000E-01   1.00800           0
      3887 MEMB     30       POPC     N        NTL     -0.600000       14.0070           0
      3888 MEMB     30       POPC     C12      CTL2    -0.100000       12.0110           0
      3889 MEMB     30       POPC     H12A     HL       0.250000       1.00800           0
      3890 MEMB     30       POPC     H12B     HL       0.250000       1.00800           0
      3891 MEMB     30       POPC     C13      CTL5    -0.350000       12.0110           0
      3892 MEMB     30       POPC     H13A     HL       0.250000       1.00800           0
      3893 MEMB     30       POPC     H13B     HL       0.250000       1.00800           0
      3894 MEMB     30       POPC     H13C     HL       0.250000       1.00800           0
      3895 MEMB     30       POPC     C14      CTL5    -0.350000       12.0110           0
      3896 MEMB     30       POPC     H14A     HL       0.250000       1.00800           0
      3897 MEMB     30       POPC     H14B     HL       0.250000       1.00800           0
      3898 MEMB     30       POPC     H14C     HL       0.250000       1.00800           0
      3899 MEMB     30       POPC     C15      CTL5    -0.350000       12.0110           0
      3900 MEMB     30       POPC     H15A     HL       0.250000       1.00800           0
      3901 MEMB     30       POPC     H15B     HL       0.250000       1.00800           0
      3902 MEMB     30       POPC     H15C     HL       0.250000       1.00800           0
      3903 MEMB     30       POPC     C11      CTL2    -0.800000E-01   12.0110           0
      3904 MEMB     30       POPC     H11A     HAL2     0.900000E-01   1.00800           0
      3905 MEMB     30       POPC     H11B     HAL2     0.900000E-01   1.00800           0
      3906 MEMB     30       POPC     P        PL        1.50000       30.9740           0
      3907 MEMB     30       POPC     O13      O2L     -0.780000       15.9994           0
      3908 MEMB     30       POPC     O14      O2L     -0.780000       15.9994           0
      3909 MEMB     30       POPC     O12      OSLP    -0.570000       15.9994           0
      3910 MEMB     30       POPC     O11      OSLP    -0.570000       15.9994           0
      3911 MEMB     30       POPC     C1       CTL2    -0.800000E-01   12.0110           0
      3912 MEMB     30       POPC     HA       HAL2     0.900000E-01   1.00800           0
      3913 MEMB     30       POPC     HB       HAL2     0.900000E-01   1.00800           0
      3914 MEMB     30       POPC     C2       CTL1     0.170000       12.0110           0
      3915 MEMB     30       POPC     HS       HAL1     0.900000E-01   1.00800           0
      3916 MEMB     30       POPC     O21      OSL     -0.490000       15.9994           0
      3917 MEMB     30       POPC     C21      CL       0.900000       12.0110           0
      3918 MEMB     30       POPC     O22      OBL     -0.630000       15.9994           0
      3919 MEMB     30       POPC     C22      CTL2    -0.220000       12.0110           0
      3920 MEMB     30       POPC     H2R      HAL2     0.900000E-01   1.00800           0
      3921 MEMB     30       POPC     H2S      HAL2     0.900000E-01   1.00800           0
      3922 MEMB     30       POPC     C3       CTL2     0.800000E-01   12.0110           0
      3923 MEMB     30       POPC     HX       HAL2     0.900000E-01   1.00800           0
      3924 MEMB     30       POPC     HY       HAL2     0.900000E-01   1.00800           0
      3925 MEMB     30       POPC     O31      OSL     -0.490000       15.9994           0
      3926 MEMB     30       POPC     C31      CL       0.900000       12.0110           0
      3927 MEMB     30       POPC     O32      OBL     -0.630000       15.9994           0
      3928 MEMB     30       POPC     C32      CTL2    -0.220000       12.0110           0
      3929 MEMB     30       POPC     H2X      HAL2     0.900000E-01   1.00800           0
      3930 MEMB     30       POPC     H2Y      HAL2     0.900000E-01   1.00800           0
      3931 MEMB     30       POPC     C23      CTL2    -0.180000       12.0110           0
      3932 MEMB     30       POPC     H3R      HAL2     0.900000E-01   1.00800           0
      3933 MEMB     30       POPC     H3S      HAL2     0.900000E-01   1.00800           0
      3934 MEMB     30       POPC     C24      CTL2    -0.180000       12.0110           0
      3935 MEMB     30       POPC     H4R      HAL2     0.900000E-01   1.00800           0
      3936 MEMB     30       POPC     H4S      HAL2     0.900000E-01   1.00800           0
      3937 MEMB     30       POPC     C25      CTL2    -0.180000       12.0110           0
      3938 MEMB     30       POPC     H5R      HAL2     0.900000E-01   1.00800           0
      3939 MEMB     30       POPC     H5S      HAL2     0.900000E-01   1.00800           0
      3940 MEMB     30       POPC     C26      CTL2    -0.180000       12.0110           0
      3941 MEMB     30       POPC     H6R      HAL2     0.900000E-01   1.00800           0
      3942 MEMB     30       POPC     H6S      HAL2     0.900000E-01   1.00800           0
      3943 MEMB     30       POPC     C27      CTL2    -0.180000       12.0110           0
      3944 MEMB     30       POPC     H7R      HAL2     0.900000E-01   1.00800           0
      3945 MEMB     30       POPC     H7S      HAL2     0.900000E-01   1.00800           0
      3946 MEMB     30       POPC     C28      CTL2    -0.180000       12.0110           0
      3947 MEMB     30       POPC     H8R      HAL2     0.900000E-01   1.00800           0
      3948 MEMB     30       POPC     H8S      HAL2     0.900000E-01   1.00800           0
      3949 MEMB     30       POPC     C29      CEL1    -0.150000       12.0110           0
      3950 MEMB     30       POPC     H91      HEL1     0.150000       1.00800           0
      3951 MEMB     30       POPC     C210     CEL1    -0.150000       12.0110           0
      3952 MEMB     30       POPC     H101     HEL1     0.150000       1.00800           0
      3953 MEMB     30       POPC     C211     CTL2    -0.180000       12.0110           0
      3954 MEMB     30       POPC     H11R     HAL2     0.900000E-01   1.00800           0
      3955 MEMB     30       POPC     H11S     HAL2     0.900000E-01   1.00800           0
      3956 MEMB     30       POPC     C212     CTL2    -0.180000       12.0110           0
      3957 MEMB     30       POPC     H12R     HAL2     0.900000E-01   1.00800           0
      3958 MEMB     30       POPC     H12S     HAL2     0.900000E-01   1.00800           0
      3959 MEMB     30       POPC     C213     CTL2    -0.180000       12.0110           0
      3960 MEMB     30       POPC     H13R     HAL2     0.900000E-01   1.00800           0
      3961 MEMB     30       POPC     H13S     HAL2     0.900000E-01   1.00800           0
      3962 MEMB     30       POPC     C214     CTL2    -0.180000       12.0110           0
      3963 MEMB     30       POPC     H14R     HAL2     0.900000E-01   1.00800           0
      3964 MEMB     30       POPC     H14S     HAL2     0.900000E-01   1.00800           0
      3965 MEMB     30       POPC     C215     CTL2    -0.180000       12.0110           0
      3966 MEMB     30       POPC     H15R     HAL2     0.900000E-01   1.00800           0
      3967 MEMB     30       POPC     H15S     HAL2     0.900000E-01   1.00800           0
      3968 MEMB     30       POPC     C216     CTL2    -0.180000       12.0110           0
      3969 MEMB     30       POPC     H16R     HAL2     0.900000E-01   1.00800           0
      3970 MEMB     30       POPC     H16S     HAL2     0.900000E-01   1.00800           0
      3971 MEMB     30       POPC     C217     CTL2    -0.180000       12.0110           0
      3972 MEMB     30       POPC     H17R     HAL2     0.900000E-01   1.00800           0
      3973 MEMB     30       POPC     H17S     HAL2     0.900000E-01   1.00800           0
      3974 MEMB     30       POPC     C218     CTL3    -0.270000       12.0110           0
      3975 MEMB     30       POPC     H18R     HAL3     0.900000E-01   1.00800           0
      3976 MEMB     30       POPC     H18S     HAL3     0.900000E-01   1.00800           0
      3977 MEMB     30       POPC     H18T     HAL3     0.900000E-01   1.00800           0
      3978 MEMB     30       POPC     C33      CTL2    -0.180000       12.0110           0
      3979 MEMB     30       POPC     H3X      HAL2     0.900000E-01   1.00800           0
      3980 MEMB     30       POPC     H3Y      HAL2     0.900000E-01   1.00800           0
      3981 MEMB     30       POPC     C34      CTL2    -0.180000       12.0110           0
      3982 MEMB     30       POPC     H4X      HAL2     0.900000E-01   1.00800           0
      3983 MEMB     30       POPC     H4Y      HAL2     0.900000E-01   1.00800           0
      3984 MEMB     30       POPC     C35      CTL2    -0.180000       12.0110           0
      3985 MEMB     30       POPC     H5X      HAL2     0.900000E-01   1.00800           0
      3986 MEMB     30       POPC     H5Y      HAL2     0.900000E-01   1.00800           0
      3987 MEMB     30       POPC     C36      CTL2    -0.180000       12.0110           0
      3988 MEMB     30       POPC     H6X      HAL2     0.900000E-01   1.00800           0
      3989 MEMB     30       POPC     H6Y      HAL2     0.900000E-01   1.00800           0
      3990 MEMB     30       POPC     C37      CTL2    -0.180000       12.0110           0
      3991 MEMB     30       POPC     H7X      HAL2     0.900000E-01   1.00800           0
      3992 MEMB     30       POPC     H7Y      HAL2     0.900000E-01   1.00800           0
      3993 MEMB     30       POPC     C38      CTL2    -0.180000       12.0110           0
      3994 MEMB     30       POPC     H8X      HAL2     0.900000E-01   1.00800           0
      3995 MEMB     30       POPC     H8Y      HAL2     0.900000E-01   1.00800           0
      3996 MEMB     30       POPC     C39      CTL2    -0.180000       12.0110           0
      3997 MEMB     30       POPC     H9X      HAL2     0.900000E-01   1.00800           0
      3998 MEMB     30       POPC     H9Y      HAL2     0.900000E-01   1.00800           0
      3999 MEMB     30       POPC     C310     CTL2    -0.180000       12.0110           0
      4000 MEMB     30       POPC     H10X     HAL2     0.900000E-01   1.00800           0
      4001 MEMB     30       POPC     H10Y     HAL2     0.900000E-01   1.00800           0
      4002 MEMB     30       POPC     C311     CTL2    -0.180000       12.0110           0
      4003 MEMB     30       POPC     H11X     HAL2     0.900000E-01   1.00800           0
      4004 MEMB     30       POPC     H11Y     HAL2     0.900000E-01   1.00800           0
      4005 MEMB     30       POPC     C312     CTL2    -0.180000       12.0110           0
      4006 MEMB     30       POPC     H12X     HAL2     0.900000E-01   1.00800           0
      4007 MEMB     30       POPC     H12Y     HAL2     0.900000E-01   1.00800           0
      4008 MEMB     30       POPC     C313     CTL2    -0.180000       12.0110           0
      4009 MEMB     30       POPC     H13X     HAL2     0.900000E-01   1.00800           0
      4010 MEMB     30       POPC     H13Y     HAL2     0.900000E-01   1.00800           0
      4011 MEMB     30       POPC     C314     CTL2    -0.180000       12.0110           0
      4012 MEMB     30       POPC     H14X     HAL2     0.900000E-01   1.00800           0
      4013 MEMB     30       POPC     H14Y     HAL2     0.900000E-01   1.00800           0
      4014 MEMB     30       POPC     C315     CTL2    -0.180000       12.0110           0
      4015 MEMB     30       POPC     H15X     HAL2     0.900000E-01   1.00800           0
      4016 MEMB     30       POPC     H15Y     HAL2     0.900000E-01   1.00800           0
      4017 MEMB     30       POPC     C316     CTL3    -0.270000       12.0110           0
      4018 MEMB     30       POPC     H16X     HAL3     0.900000E-01   1.00800           0
      4019 MEMB     30       POPC     H16Y     HAL3     0.900000E-01   1.00800           0
      4020 MEMB     30       POPC     H16Z     HAL3     0.900000E-01   1.00800           0
      4021 MEMB     31       POPC     N        NTL     -0.600000       14.0070           0
      4022 MEMB     31       POPC     C12      CTL2    -0.100000       12.0110           0
      4023 MEMB     31       POPC     H12A     HL       0.250000       1.00800           0
      4024 MEMB     31       POPC     H12B     HL       0.250000       1.00800           0
      4025 MEMB     31       POPC     C13      CTL5    -0.350000       12.0110           0
      4026 MEMB     31       POPC     H13A     HL       0.250000       1.00800           0
      4027 MEMB     31       POPC     H13B     HL       0.250000       1.00800           0
      4028 MEMB     31       POPC     H13C     HL       0.250000       1.00800           0
      4029 MEMB     31       POPC     C14      CTL5    -0.350000       12.0110           0
      4030 MEMB     31       POPC     H14A     HL       0.250000       1.00800           0
      4031 MEMB     31       POPC     H14B     HL       0.250000       1.00800           0
      4032 MEMB     31       POPC     H14C     HL       0.250000       1.00800           0
      4033 MEMB     31       POPC     C15      CTL5    -0.350000       12.0110           0
      4034 MEMB     31       POPC     H15A     HL       0.250000       1.00800           0
      4035 MEMB     31       POPC     H15B     HL       0.250000       1.00800           0
      4036 MEMB     31       POPC     H15C     HL       0.250000       1.00800           0
      4037 MEMB     31       POPC     C11      CTL2    -0.800000E-01   12.0110           0
      4038 MEMB     31       POPC     H11A     HAL2     0.900000E-01   1.00800           0
      4039 MEMB     31       POPC     H11B     HAL2     0.900000E-01   1.00800           0
      4040 MEMB     31       POPC     P        PL        1.50000       30.9740           0
      4041 MEMB     31       POPC     O13      O2L     -0.780000       15.9994           0
      4042 MEMB     31       POPC     O14      O2L     -0.780000       15.9994           0
      4043 MEMB     31       POPC     O12      OSLP    -0.570000       15.9994           0
      4044 MEMB     31       POPC     O11      OSLP    -0.570000       15.9994           0
      4045 MEMB     31       POPC     C1       CTL2    -0.800000E-01   12.0110           0
      4046 MEMB     31       POPC     HA       HAL2     0.900000E-01   1.00800           0
      4047 MEMB     31       POPC     HB       HAL2     0.900000E-01   1.00800           0
      4048 MEMB     31       POPC     C2       CTL1     0.170000       12.0110           0
      4049 MEMB     31       POPC     HS       HAL1     0.900000E-01   1.00800           0
      4050 MEMB     31       POPC     O21      OSL     -0.490000       15.9994           0
      4051 MEMB     31       POPC     C21      CL       0.900000       12.0110           0
      4052 MEMB     31       POPC     O22      OBL     -0.630000       15.9994           0
      4053 MEMB     31       POPC     C22      CTL2    -0.220000       12.0110           0
      4054 MEMB     31       POPC     H2R      HAL2     0.900000E-01   1.00800           0
      4055 MEMB     31       POPC     H2S      HAL2     0.900000E-01   1.00800           0
      4056 MEMB     31       POPC     C3       CTL2     0.800000E-01   12.0110           0
      4057 MEMB     31       POPC     HX       HAL2     0.900000E-01   1.00800           0
      4058 MEMB     31       POPC     HY       HAL2     0.900000E-01   1.00800           0
      4059 MEMB     31       POPC     O31      OSL     -0.490000       15.9994           0
      4060 MEMB     31       POPC     C31      CL       0.900000       12.0110           0
      4061 MEMB     31       POPC     O32      OBL     -0.630000       15.9994           0
      4062 MEMB     31       POPC     C32      CTL2    -0.220000       12.0110           0
      4063 MEMB     31       POPC     H2X      HAL2     0.900000E-01   1.00800           0
      4064 MEMB     31       POPC     H2Y      HAL2     0.900000E-01   1.00800           0
      4065 MEMB     31       POPC     C23      CTL2    -0.180000       12.0110           0
      4066 MEMB     31       POPC     H3R      HAL2     0.900000E-01   1.00800           0
      4067 MEMB     31       POPC     H3S      HAL2     0.900000E-01   1.00800           0
      4068 MEMB     31       POPC     C24      CTL2    -0.180000       12.0110           0
      4069 MEMB     31       POPC     H4R      HAL2     0.900000E-01   1.00800           0
      4070 MEMB     31       POPC     H4S      HAL2     0.900000E-01   1.00800           0
      4071 MEMB     31       POPC     C25      CTL2    -0.180000       12.0110           0
      4072 MEMB     31       POPC     H5R      HAL2     0.900000E-01   1.00800           0
      4073 MEMB     31       POPC     H5S      HAL2     0.900000E-01   1.00800           0
      4074 MEMB     31       POPC     C26      CTL2    -0.180000       12.0110           0
      4075 MEMB     31       POPC     H6R      HAL2     0.900000E-01   1.00800           0
      4076 MEMB     31       POPC     H6S      HAL2     0.900000E-01   1.00800           0
      4077 MEMB     31       POPC     C27      CTL2    -0.180000       12.0110           0
      4078 MEMB     31       POPC     H7R      HAL2     0.900000E-01   1.00800           0
      4079 MEMB     31       POPC     H7S      HAL2     0.900000E-01   1.00800           0
      4080 MEMB     31       POPC     C28      CTL2    -0.180000       12.0110           0
      4081 MEMB     31       POPC     H8R      HAL2     0.900000E-01   1.00800           0
      4082 MEMB     31       POPC     H8S      HAL2     0.900000E-01   1.00800           0
      4083 MEMB     31       POPC     C29      CEL1    -0.150000       12.0110           0
      4084 MEMB     31       POPC     H91      HEL1     0.150000       1.00800           0
      4085 MEMB     31       POPC     C210     CEL1    -0.150000       12.0110           0
      4086 MEMB     31       POPC     H101     HEL1     0.150000       1.00800           0
      4087 MEMB     31       POPC     C211     CTL2    -0.180000       12.0110           0
      4088 MEMB     31       POPC     H11R     HAL2     0.900000E-01   1.00800           0
      4089 MEMB     31       POPC     H11S     HAL2     0.900000E-01   1.00800           0
      4090 MEMB     31       POPC     C212     CTL2    -0.180000       12.0110           0
      4091 MEMB     31       POPC     H12R     HAL2     0.900000E-01   1.00800           0
      4092 MEMB     31       POPC     H12S     HAL2     0.900000E-01   1.00800           0
      4093 MEMB     31       POPC     C213     CTL2    -0.180000       12.0110           0
      4094 MEMB     31       POPC     H13R     HAL2     0.900000E-01   1.00800           0
      4095 MEMB     31       POPC     H13S     HAL2     0.900000E-01   1.00800           0
      4096 MEMB     31       POPC     C214     CTL2    -0.180000       12.0110           0
      4097 MEMB     31       POPC     H14R     HAL2     0.900000E-01   1.00800           0
      4098 MEMB     31       POPC     H14S     HAL2     0.900000E-01   1.00800           0
      4099 MEMB     31       POPC     C215     CTL2    -0.180000       12.0110           0
      4100 MEMB     31       POPC     H15R     HAL2     0.900000E-01   1.00800           0
      4101 MEMB     31       POPC     H15S     HAL2     0.900000E-01   1.00800           0
      4102 MEMB     31       POPC     C216     CTL2    -0.180000       12.0110           0
      4103 MEMB     31       POPC     H16R     HAL2     0.900000E-01   1.00800           0
      4104 MEMB     31       POPC     H16S     HAL2     0.900000E-01   1.00800           0
      4105 MEMB     31       POPC     C217     CTL2    -0.180000       12.0110           0
      4106 MEMB     31       POPC     H17R     HAL2     0.900000E-01   1.00800           0
      4107 MEMB     31       POPC     H17S     HAL2     0.900000E-01   1.00800           0
      4108 MEMB     31       POPC     C218     CTL3    -0.270000       12.0110           0
      4109 MEMB     31       POPC     H18R     HAL3     0.900000E-01   1.00800           0
      4110 MEMB     31       POPC     H18S     HAL3     0.900000E-01   1.00800           0
      4111 MEMB     31       POPC     H18T     HAL3     0.900000E-01   1.00800           0
      4112 MEMB     31       POPC     C33      CTL2    -0.180000       12.0110           0
      4113 MEMB     31       POPC     H3X      HAL2     0.900000E-01   1.00800           0
      4114 MEMB     31       POPC     H3Y      HAL2     0.900000E-01   1.00800           0
      4115 MEMB     31       POPC     C34      CTL2    -0.180000       12.0110           0
      4116 MEMB     31       POPC     H4X      HAL2     0.900000E-01   1.00800           0
      4117 MEMB     31       POPC     H4Y      HAL2     0.900000E-01   1.00800           0
      4118 MEMB     31       POPC     C35      CTL2    -0.180000       12.0110           0
      4119 MEMB     31       POPC     H5X      HAL2     0.900000E-01   1.00800           0
      4120 MEMB     31       POPC     H5Y      HAL2     0.900000E-01   1.00800           0
      4121 MEMB     31       POPC     C36      CTL2    -0.180000       12.0110           0
      4122 MEMB     31       POPC     H6X      HAL2     0.900000E-01   1.00800           0
      4123 MEMB     31       POPC     H6Y      HAL2     0.900000E-01   1.00800           0
      4124 MEMB     31       POPC     C37      CTL2    -0.180000       12.0110           0
      4125 MEMB     31       POPC     H7X      HAL2     0.900000E-01   1.00800           0
      4126 MEMB     31       POPC     H7Y      HAL2     0.900000E-01   1.00800           0
      4127 MEMB     31       POPC     C38      CTL2    -0.180000       12.0110           0
      4128 MEMB     31       POPC     H8X      HAL2     0.900000E-01   1.00800           0
      4129 MEMB     31       POPC     H8Y      HAL2     0.900000E-01   1.00800           0
      4130 MEMB     31       POPC     C39      CTL2    -0.180000       12.0110           0
      4131 MEMB     31       POPC     H9X      HAL2     0.900000E-01   1.00800           0
      4132 MEMB     31       POPC     H9Y      HAL2     0.900000E-01   1.00800           0
      4133 MEMB     31       POPC     C310     CTL2    -0.180000       12.0110           0
      4134 MEMB     31       POPC     H10X     HAL2     0.900000E-01   1.00800           0
      4135 MEMB     31       POPC     H10Y     HAL2     0.900000E-01   1.00800           0
      4136 MEMB     31       POPC     C311     CTL2    -0.180000       12.0110           0
      4137 MEMB     31       POPC     H11X     HAL2     0.900000E-01   1.00800           0
      4138 MEMB     31       POPC     H11Y     HAL2     0.900000E-01   1.00800           0
      4139 MEMB     31       POPC     C312     CTL2    -0.180000       12.0110           0
      4140 MEMB     31       POPC     H12X     HAL2     0.900000E-01   1.00800           0
      4141 MEMB     31       POPC     H12Y     HAL2     0.900000E-01   1.00800           0
      4142 MEMB     31       POPC     C313     CTL2    -0.180000       12.0110           0
      4143 MEMB     31       POPC     H13X     HAL2     0.900000E-01   1.00800           0
      4144 MEMB     31       POPC     H13Y     HAL2     0.900000E-01   1.00800           0
      4145 MEMB     31       POPC     C314     CTL2    -0.180000       12.0110           0
      4146 MEMB     31       POPC     H14X     HAL2     0.900000E-01   1.00800           0
      4147 MEMB     31       POPC     H14Y     HAL2     0.900000E-01   1.00800           0
      4148 MEMB     31       POPC     C315     CTL2    -0.180000       12.0110           0
      4149 MEMB     31       POPC     H15X     HAL2     0.900000E-01   1.00800           0
      4150 MEMB     31       POPC     H15Y     HAL2     0.900000E-01   1.00800           0
      4151 MEMB     31       POPC     C316     CTL3    -0.270000       12.0110           0
      4152 MEMB     31       POPC     H16X     HAL3     0.900000E-01   1.00800           0
      4153 MEMB     31       POPC     H16Y     HAL3     0.900000E-01   1.00800           0
      4154 MEMB     31       POPC     H16Z     HAL3     0.900000E-01   1.00800           0
      4155 MEMB     32       POPC     N        NTL     -0.600000       14.0070           0
      4156 MEMB     32       POPC     C12      CTL2    -0.100000       12.0110           0
      4157 MEMB     32       POPC     H12A     HL       0.250000       1.00800           0
      4158 MEMB     32       POPC     H12B     HL       0.250000       1.00800           0
      4159 MEMB     32       POPC     C13      CTL5    -0.350000       12.0110           0
      4160 MEMB     32       POPC     H13A     HL       0.250000       1.00800           0
      4161 MEMB     32       POPC     H13B     HL       0.250000       1.00800           0
      4162 MEMB     32       POPC     H13C     HL       0.250000       1.00800           0
      4163 MEMB     32       POPC     C14      CTL5    -0.350000       12.0110           0
      4164 MEMB     32       POPC     H14A     HL       0.250000       1.00800           0
      4165 MEMB     32       POPC     H14B     HL       0.250000       1.00800           0
      4166 MEMB     32       POPC     H14C     HL       0.250000       1.00800           0
      4167 MEMB     32       POPC     C15      CTL5    -0.350000       12.0110           0
      4168 MEMB     32       POPC     H15A     HL       0.250000       1.00800           0
      4169 MEMB     32       POPC     H15B     HL       0.250000       1.00800           0
      4170 MEMB     32       POPC     H15C     HL       0.250000       1.00800           0
      4171 MEMB     32       POPC     C11      CTL2    -0.800000E-01   12.0110           0
      4172 MEMB     32       POPC     H11A     HAL2     0.900000E-01   1.00800           0
      4173 MEMB     32       POPC     H11B     HAL2     0.900000E-01   1.00800           0
      4174 MEMB     32       POPC     P        PL        1.50000       30.9740           0
      4175 MEMB     32       POPC     O13      O2L     -0.780000       15.9994           0
      4176 MEMB     32       POPC     O14      O2L     -0.780000       15.9994           0
      4177 MEMB     32       POPC     O12      OSLP    -0.570000       15.9994           0
      4178 MEMB     32       POPC     O11      OSLP    -0.570000       15.9994           0
      4179 MEMB     32       POPC     C1       CTL2    -0.800000E-01   12.0110           0
      4180 MEMB     32       POPC     HA       HAL2     0.900000E-01   1.00800           0
      4181 MEMB     32       POPC     HB       HAL2     0.900000E-01   1.00800           0
      4182 MEMB     32       POPC     C2       CTL1     0.170000       12.0110           0
      4183 MEMB     32       POPC     HS       HAL1     0.900000E-01   1.00800           0
      4184 MEMB     32       POPC     O21      OSL     -0.490000       15.9994           0
      4185 MEMB     32       POPC     C21      CL       0.900000       12.0110           0
      4186 MEMB     32       POPC     O22      OBL     -0.630000       15.9994           0
      4187 MEMB     32       POPC     C22      CTL2    -0.220000       12.0110           0
      4188 MEMB     32       POPC     H2R      HAL2     0.900000E-01   1.00800           0
      4189 MEMB     32       POPC     H2S      HAL2     0.900000E-01   1.00800           0
      4190 MEMB     32       POPC     C3       CTL2     0.800000E-01   12.0110           0
      4191 MEMB     32       POPC     HX       HAL2     0.900000E-01   1.00800           0
      4192 MEMB     32       POPC     HY       HAL2     0.900000E-01   1.00800           0
      4193 MEMB     32       POPC     O31      OSL     -0.490000       15.9994           0
      4194 MEMB     32       POPC     C31      CL       0.900000       12.0110           0
      4195 MEMB     32       POPC     O32      OBL     -0.630000       15.9994           0
      4196 MEMB     32       POPC     C32      CTL2    -0.220000       12.0110           0
      4197 MEMB     32       POPC     H2X      HAL2     0.900000E-01   1.00800           0
      4198 MEMB     32       POPC     H2Y      HAL2     0.900000E-01   1.00800           0
      4199 MEMB     32       POPC     C23      CTL2    -0.180000       12.0110           0
      4200 MEMB     32       POPC     H3R      HAL2     0.900000E-01   1.00800           0
      4201 MEMB     32       POPC     H3S      HAL2     0.900000E-01   1.00800           0
      4202 MEMB     32       POPC     C24      CTL2    -0.180000       12.0110           0
      4203 MEMB     32       POPC     H4R      HAL2     0.900000E-01   1.00800           0
      4204 MEMB     32       POPC     H4S      HAL2     0.900000E-01   1.00800           0
      4205 MEMB     32       POPC     C25      CTL2    -0.180000       12.0110           0
      4206 MEMB     32       POPC     H5R      HAL2     0.900000E-01   1.00800           0
      4207 MEMB     32       POPC     H5S      HAL2     0.900000E-01   1.00800           0
      4208 MEMB     32       POPC     C26      CTL2    -0.180000       12.0110           0
      4209 MEMB     32       POPC     H6R      HAL2     0.900000E-01   1.00800           0
      4210 MEMB     32       POPC     H6S      HAL2     0.900000E-01   1.00800           0
      4211 MEMB     32       POPC     C27      CTL2    -0.180000       12.0110           0
      4212 MEMB     32       POPC     H7R      HAL2     0.900000E-01   1.00800           0
      4213 MEMB     32       POPC     H7S      HAL2     0.900000E-01   1.00800           0
      4214 MEMB     32       POPC     C28      CTL2    -0.180000       12.0110           0
      4215 MEMB     32       POPC     H8R      HAL2     0.900000E-01   1.00800           0
      4216 MEMB     32       POPC     H8S      HAL2     0.900000E-01   1.00800           0
      4217 MEMB     32       POPC     C29      CEL1    -0.150000       12.0110           0
      4218 MEMB     32       POPC     H91      HEL1     0.150000       1.00800           0
      4219 MEMB     32       POPC     C210     CEL1    -0.150000       12.0110           0
      4220 MEMB     32       POPC     H101     HEL1     0.150000       1.00800           0
      4221 MEMB     32       POPC     C211     CTL2    -0.180000       12.0110           0
      4222 MEMB     32       POPC     H11R     HAL2     0.900000E-01   1.00800           0
      4223 MEMB     32       POPC     H11S     HAL2     0.900000E-01   1.00800           0
      4224 MEMB     32       POPC     C212     CTL2    -0.180000       12.0110           0
      4225 MEMB     32       POPC     H12R     HAL2     0.900000E-01   1.00800           0
      4226 MEMB     32       POPC     H12S     HAL2     0.900000E-01   1.00800           0
      4227 MEMB     32       POPC     C213     CTL2    -0.180000       12.0110           0
      4228 MEMB     32       POPC     H13R     HAL2     0.900000E-01   1.00800           0
      4229 MEMB     32       POPC     H13S     HAL2     0.900000E-01   1.00800           0
      4230 MEMB     32       POPC     C214     CTL2    -0.180000       12.0110           0
      4231 MEMB     32       POPC     H14R     HAL2     0.900000E-01   1.00800           0
      4232 MEMB     32       POPC     H14S     HAL2     0.900000E-01   1.00800           0
      4233 MEMB     32       POPC     C215     CTL2    -0.180000       12.0110           0
      4234 MEMB     32       POPC     H15R     HAL2     0.900000E-01   1.00800           0
      4235 MEMB     32       POPC     H15S     HAL2     0.900000E-01   1.00800           0
      4236 MEMB     32       POPC     C216     CTL2    -0.180000       12.0110           0
      4237 MEMB     32       POPC     H16R     HAL2     0.900000E-01   1.00800           0
      4238 MEMB     32       POPC     H16S     HAL2     0.900000E-01   1.00800           0
      4239 MEMB     32       POPC     C217     CTL2    -0.180000       12.0110           0
      4240 MEMB     32       POPC     H17R     HAL2     0.900000E-01   1.00800           0
      4241 MEMB     32       POPC     H17S     HAL2     0.900000E-01   1.00800           0
      4242 MEMB     32       POPC     C218     CTL3    -0.270000       12.0110           0
      4243 MEMB     32       POPC     H18R     HAL3     0.900000E-01   1.00800           0
      4244 MEMB     32       POPC     H18S     HAL3     0.900000E-01   1.00800           0
      4245 MEMB     32       POPC     H18T     HAL3     0.900000E-01   1.00800           0
      4246 MEMB     32       POPC     C33      CTL2    -0.180000       12.0110           0
      4247 MEMB     32       POPC     H3X      HAL2     0.900000E-01   1.00800           0
      4248 MEMB     32       POPC     H3Y      HAL2     0.900000E-01   1.00800           0
      4249 MEMB     32       POPC     C34      CTL2    -0.180000       12.0110           0
      4250 MEMB     32       POPC     H4X      HAL2     0.900000E-01   1.00800           0
      4251 MEMB     32       POPC     H4Y      HAL2     0.900000E-01   1.00800           0
      4252 MEMB     32       POPC     C35      CTL2    -0.180000       12.0110           0
      4253 MEMB     32       POPC     H5X      HAL2     0.900000E-01   1.00800           0
      4254 MEMB     32       POPC     H5Y      HAL2     0.900000E-01   1.00800           0
      4255 MEMB     32       POPC     C36      CTL2    -0.180000       12.0110           0
      4256 MEMB     32       POPC     H6X      HAL2     0.900000E-01   1.00800           0
      4257 MEMB     32       POPC     H6Y      HAL2     0.900000E-01   1.00800           0
      4258 MEMB     32       POPC     C37      CTL2    -0.180000       12.0110           0
      4259 MEMB     32       POPC     H7X      HAL2     0.900000E-01   1.00800           0
      4260 MEMB     32       POPC     H7Y      HAL2     0.900000E-01   1.00800           0
      4261 MEMB     32       POPC     C38      CTL2    -0.180000       12.0110           0
      4262 MEMB     32       POPC     H8X      HAL2     0.900000E-01   1.00800           0
      4263 MEMB     32       POPC     H8Y      HAL2     0.900000E-01   1.00800           0
      4264 MEMB     32       POPC     C39      CTL2    -0.180000       12.0110           0
      4265 MEMB     32       POPC     H9X      HAL2     0.900000E-01   1.00800           0
      4266 MEMB     32       POPC     H9Y      HAL2     0.900000E-01   1.00800           0
      4267 MEMB     32       POPC     C310     CTL2    -0.180000       12.0110           0
      4268 MEMB     32       POPC     H10X     HAL2     0.900000E-01   1.00800           0
      4269 MEMB     32       POPC     H10Y     HAL2     0.900000E-01   1.00800           0
      4270 MEMB     32       POPC     C311     CTL2    -0.180000       12.0110           0
      4271 MEMB     32       POPC     H11X     HAL2     0.900000E-01   1.00800           0
      4272 MEMB     32       POPC     H11Y     HAL2     0.900000E-01   1.00800           0
      4273 MEMB     32       POPC     C312     CTL2    -0.180000       12.0110           0
      4274 MEMB     32       POPC     H12X     HAL2     0.900000E-01   1.00800           0
      4275 MEMB     32       POPC     H12Y     HAL2     0.900000E-01   1.00800           0
      4276 MEMB     32       POPC     C313     CTL2    -0.180000       12.0110           0
      4277 MEMB     32       POPC     H13X     HAL2     0.900000E-01   1.00800           0
      4278 MEMB     32       POPC     H13Y     HAL2     0.900000E-01   1.00800           0
      4279 MEMB     32       POPC     C314     CTL2    -0.180000       12.0110           0
      4280 MEMB     32       POPC     H14X     HAL2     0.900000E-01   1.00800           0
      4281 MEMB     32       POPC     H14Y     HAL2     0.900000E-01   1.00800           0
      4282 MEMB     32       POPC     C315     CTL2    -0.180000       12.0110           0
      4283 MEMB     32       POPC     H15X     HAL2     0.900000E-01   1.00800           0
      4284 MEMB     32       POPC     H15Y     HAL2     0.900000E-01   1.00800           0
      4285 MEMB     32       POPC     C316     CTL3    -0.270000       12.0110           0
      4286 MEMB     32       POPC     H16X     HAL3     0.900000E-01   1.00800           0
      4287 MEMB     32       POPC     H16Y     HAL3     0.900000E-01   1.00800           0
      4288 MEMB     32       POPC     H16Z     HAL3     0.900000E-01   1.00800           0
      4289 MEMB     33       POPC     N        NTL     -0.600000       14.0070           0
      4290 MEMB     33       POPC     C12      CTL2    -0.100000       12.0110           0
      4291 MEMB     33       POPC     H12A     HL       0.250000       1.00800           0
      4292 MEMB     33       POPC     H12B     HL       0.250000       1.00800           0
      4293 MEMB     33       POPC     C13      CTL5    -0.350000       12.0110           0
      4294 MEMB     33       POPC     H13A     HL       0.250000       1.00800           0
      4295 MEMB     33       POPC     H13B     HL       0.250000       1.00800           0
      4296 MEMB     33       POPC     H13C     HL       0.250000       1.00800           0
      4297 MEMB     33       POPC     C14      CTL5    -0.350000       12.0110           0
      4298 MEMB     33       POPC     H14A     HL       0.250000       1.00800           0
      4299 MEMB     33       POPC     H14B     HL       0.250000       1.00800           0
      4300 MEMB     33       POPC     H14C     HL       0.250000       1.00800           0
      4301 MEMB     33       POPC     C15      CTL5    -0.350000       12.0110           0
      4302 MEMB     33       POPC     H15A     HL       0.250000       1.00800           0
      4303 MEMB     33       POPC     H15B     HL       0.250000       1.00800           0
      4304 MEMB     33       POPC     H15C     HL       0.250000       1.00800           0
      4305 MEMB     33       POPC     C11      CTL2    -0.800000E-01   12.0110           0
      4306 MEMB     33       POPC     H11A     HAL2     0.900000E-01   1.00800           0
      4307 MEMB     33       POPC     H11B     HAL2     0.900000E-01   1.00800           0
      4308 MEMB     33       POPC     P        PL        1.50000       30.9740           0
      4309 MEMB     33       POPC     O13      O2L     -0.780000       15.9994           0
      4310 MEMB     33       POPC     O14      O2L     -0.780000       15.9994           0
      4311 MEMB     33       POPC     O12      OSLP    -0.570000       15.9994           0
      4312 MEMB     33       POPC     O11      OSLP    -0.570000       15.9994           0
      4313 MEMB     33       POPC     C1       CTL2    -0.800000E-01   12.0110           0
      4314 MEMB     33       POPC     HA       HAL2     0.900000E-01   1.00800           0
      4315 MEMB     33       POPC     HB       HAL2     0.900000E-01   1.00800           0
      4316 MEMB     33       POPC     C2       CTL1     0.170000       12.0110           0
      4317 MEMB     33       POPC     HS       HAL1     0.900000E-01   1.00800           0
      4318 MEMB     33       POPC     O21      OSL     -0.490000       15.9994           0
      4319 MEMB     33       POPC     C21      CL       0.900000       12.0110           0
      4320 MEMB     33       POPC     O22      OBL     -0.630000       15.9994           0
      4321 MEMB     33       POPC     C22      CTL2    -0.220000       12.0110           0
      4322 MEMB     33       POPC     H2R      HAL2     0.900000E-01   1.00800           0
      4323 MEMB     33       POPC     H2S      HAL2     0.900000E-01   1.00800           0
      4324 MEMB     33       POPC     C3       CTL2     0.800000E-01   12.0110           0
      4325 MEMB     33       POPC     HX       HAL2     0.900000E-01   1.00800           0
      4326 MEMB     33       POPC     HY       HAL2     0.900000E-01   1.00800           0
      4327 MEMB     33       POPC     O31      OSL     -0.490000       15.9994           0
      4328 MEMB     33       POPC     C31      CL       0.900000       12.0110           0
      4329 MEMB     33       POPC     O32      OBL     -0.630000       15.9994           0
      4330 MEMB     33       POPC     C32      CTL2    -0.220000       12.0110           0
      4331 MEMB     33       POPC     H2X      HAL2     0.900000E-01   1.00800           0
      4332 MEMB     33       POPC     H2Y      HAL2     0.900000E-01   1.00800           0
      4333 MEMB     33       POPC     C23      CTL2    -0.180000       12.0110           0
      4334 MEMB     33       POPC     H3R      HAL2     0.900000E-01   1.00800           0
      4335 MEMB     33       POPC     H3S      HAL2     0.900000E-01   1.00800           0
      4336 MEMB     33       POPC     C24      CTL2    -0.180000       12.0110           0
      4337 MEMB     33       POPC     H4R      HAL2     0.900000E-01   1.00800           0
      4338 MEMB     33       POPC     H4S      HAL2     0.900000E-01   1.00800           0
      4339 MEMB     33       POPC     C25      CTL2    -0.180000       12.0110           0
      4340 MEMB     33       POPC     H5R      HAL2     0.900000E-01   1.00800           0
      4341 MEMB     33       POPC     H5S      HAL2     0.900000E-01   1.00800           0
      4342 MEMB     33       POPC     C26      CTL2    -0.180000       12.0110           0
      4343 MEMB     33       POPC     H6R      HAL2     0.900000E-01   1.00800           0
      4344 MEMB     33       POPC     H6S      HAL2     0.900000E-01   1.00800           0
      4345 MEMB     33       POPC     C27      CTL2    -0.180000       12.0110           0
      4346 MEMB     33       POPC     H7R      HAL2     0.900000E-01   1.00800           0
      4347 MEMB     33       POPC     H7S      HAL2     0.900000E-01   1.00800           0
      4348 MEMB     33       POPC     C28      CTL2    -0.180000       12.0110           0
      4349 MEMB     33       POPC     H8R      HAL2     0.900000E-01   1.00800           0
      4350 MEMB     33       POPC     H8S      HAL2     0.900000E-01   1.00800           0
      4351 MEMB     33       POPC     C29      CEL1    -0.150000       12.0110           0
      4352 MEMB     33       POPC     H91      HEL1     0.150000       1.00800           0
      4353 MEMB     33       POPC     C210     CEL1    -0.150000       12.0110           0
      4354 MEMB     33       POPC     H101     HEL1     0.150000       1.00800           0
      4355 MEMB     33       POPC     C211     CTL2    -0.180000       12.0110           0
      4356 MEMB     33       POPC     H11R     HAL2     0.900000E-01   1.00800           0
      4357 MEMB     33       POPC     H11S     HAL2     0.900000E-01   1.00800           0
      4358 MEMB     33       POPC     C212     CTL2    -0.180000       12.0110           0
      4359 MEMB     33       POPC     H12R     HAL2     0.900000E-01   1.00800           0
      4360 MEMB     33       POPC     H12S     HAL2     0.900000E-01   1.00800           0
      4361 MEMB     33       POPC     C213     CTL2    -0.180000       12.0110           0
      4362 MEMB     33       POPC     H13R     HAL2     0.900000E-01   1.00800           0
      4363 MEMB     33       POPC     H13S     HAL2     0.900000E-01   1.00800           0
      4364 MEMB     33       POPC     C214     CTL2    -0.180000       12.0110           0
      4365 MEMB     33       POPC     H14R     HAL2     0.900000E-01   1.00800           0
      4366 MEMB     33       POPC     H14S     HAL2     0.900000E-01   1.00800           0
      4367 MEMB     33       POPC     C215     CTL2    -0.180000       12.0110           0
      4368 MEMB     33       POPC     H15R     HAL2     0.900000E-01   1.00800           0
      4369 MEMB     33       POPC     H15S     HAL2     0.900000E-01   1.00800           0
      4370 MEMB     33       POPC     C216     CTL2    -0.180000       12.0110           0
      4371 MEMB     33       POPC     H16R     HAL2     0.900000E-01   1.00800           0
      4372 MEMB     33       POPC     H16S     HAL2     0.900000E-01   1.00800           0
      4373 MEMB     33       POPC     C217     CTL2    -0.180000       12.0110           0
      4374 MEMB     33       POPC     H17R     HAL2     0.900000E-01   1.00800           0
      4375 MEMB     33       POPC     H17S     HAL2     0.900000E-01   1.00800           0
      4376 MEMB     33       POPC     C218     CTL3    -0.270000       12.0110           0
      4377 MEMB     33       POPC     H18R     HAL3     0.900000E-01   1.00800           0
      4378 MEMB     33       POPC     H18S     HAL3     0.900000E-01   1.00800           0
      4379 MEMB     33       POPC     H18T     HAL3     0.900000E-01   1.00800           0
      4380 MEMB     33       POPC     C33      CTL2    -0.180000       12.0110           0
      4381 MEMB     33       POPC     H3X      HAL2     0.900000E-01   1.00800           0
      4382 MEMB     33       POPC     H3Y      HAL2     0.900000E-01   1.00800           0
      4383 MEMB     33       POPC     C34      CTL2    -0.180000       12.0110           0
      4384 MEMB     33       POPC     H4X      HAL2     0.900000E-01   1.00800           0
      4385 MEMB     33       POPC     H4Y      HAL2     0.900000E-01   1.00800           0
      4386 MEMB     33       POPC     C35      CTL2    -0.180000       12.0110           0
      4387 MEMB     33       POPC     H5X      HAL2     0.900000E-01   1.00800           0
      4388 MEMB     33       POPC     H5Y      HAL2     0.900000E-01   1.00800           0
      4389 MEMB     33       POPC     C36      CTL2    -0.180000       12.0110           0
      4390 MEMB     33       POPC     H6X      HAL2     0.900000E-01   1.00800           0
      4391 MEMB     33       POPC     H6Y      HAL2     0.900000E-01   1.00800           0
      4392 MEMB     33       POPC     C37      CTL2    -0.180000       12.0110           0
      4393 MEMB     33       POPC     H7X      HAL2     0.900000E-01   1.00800           0
      4394 MEMB     33       POPC     H7Y      HAL2     0.900000E-01   1.00800           0
      4395 MEMB     33       POPC     C38      CTL2    -0.180000       12.0110           0
      4396 MEMB     33       POPC     H8X      HAL2     0.900000E-01   1.00800           0
      4397 MEMB     33       POPC     H8Y      HAL2     0.900000E-01   1.00800           0
      4398 MEMB     33       POPC     C39      CTL2    -0.180000       12.0110           0
      4399 MEMB     33       POPC     H9X      HAL2     0.900000E-01   1.00800           0
      4400 MEMB     33       POPC     H9Y      HAL2     0.900000E-01   1.00800           0
      4401 MEMB     33       POPC     C310     CTL2    -0.180000       12.0110           0
      4402 MEMB     33       POPC     H10X     HAL2     0.900000E-01   1.00800           0
      4403 MEMB     33       POPC     H10Y     HAL2     0.900000E-01   1.00800           0
      4404 MEMB     33       POPC     C311     CTL2    -0.180000       12.0110           0
      4405 MEMB     33       POPC     H11X     HAL2     0.900000E-01   1.00800           0
      4406 MEMB     33       POPC     H11Y     HAL2     0.900000E-01   1.00800           0
      4407 MEMB     33       POPC     C312     CTL2    -0.180000       12.0110           0
      4408 MEMB     33       POPC     H12X     HAL2     0.900000E-01   1.00800           0
      4409 MEMB     33       POPC     H12Y     HAL2     0.900000E-01   1.00800           0
      4410 MEMB     33       POPC     C313     CTL2    -0.180000       12.0110           0
      4411 MEMB     33       POPC     H13X     HAL2     0.900000E-01   1.00800           0
      4412 MEMB     33       POPC     H13Y     HAL2     0.900000E-01   1.00800           0
      4413 MEMB     33       POPC     C314     CTL2    -0.180000       12.0110           0
      4414 MEMB     33       POPC     H14X     HAL2     0.900000E-01   1.00800           0
      4415 MEMB     33       POPC     H14Y     HAL2     0.900000E-01   1.00800           0
      4416 MEMB     33       POPC     C315     CTL2    -0.180000       12.0110           0
      4417 MEMB     33       POPC     H15X     HAL2     0.900000E-01   1.00800           0
      4418 MEMB     33       POPC     H15Y     HAL2     0.900000E-01   1.00800           0
      4419 MEMB     33       POPC     C316     CTL3    -0.270000       12.0110           0
      4420 MEMB     33       POPC     H16X     HAL3     0.900000E-01   1.00800           0
      4421 MEMB     33       POPC     H16Y     HAL3     0.900000E-01   1.00800           0
      4422 MEMB     33       POPC     H16Z     HAL3     0.900000E-01   1.00800           0
      4423 MEMB     34       POPC     N        NTL     -0.600000       14.0070           0
      4424 MEMB     34       POPC     C12      CTL2    -0.100000       12.0110           0
      4425 MEMB     34       POPC     H12A     HL       0.250000       1.00800           0
      4426 MEMB     34       POPC     H12B     HL       0.250000       1.00800           0
      4427 MEMB     34       POPC     C13      CTL5    -0.350000       12.0110           0
      4428 MEMB     34       POPC     H13A     HL       0.250000       1.00800           0
      4429 MEMB     34       POPC     H13B     HL       0.250000       1.00800           0
      4430 MEMB     34       POPC     H13C     HL       0.250000       1.00800           0
      4431 MEMB     34       POPC     C14      CTL5    -0.350000       12.0110           0
      4432 MEMB     34       POPC     H14A     HL       0.250000       1.00800           0
      4433 MEMB     34       POPC     H14B     HL       0.250000       1.00800           0
      4434 MEMB     34       POPC     H14C     HL       0.250000       1.00800           0
      4435 MEMB     34       POPC     C15      CTL5    -0.350000       12.0110           0
      4436 MEMB     34       POPC     H15A     HL       0.250000       1.00800           0
      4437 MEMB     34       POPC     H15B     HL       0.250000       1.00800           0
      4438 MEMB     34       POPC     H15C     HL       0.250000       1.00800           0
      4439 MEMB     34       POPC     C11      CTL2    -0.800000E-01   12.0110           0
      4440 MEMB     34       POPC     H11A     HAL2     0.900000E-01   1.00800           0
      4441 MEMB     34       POPC     H11B     HAL2     0.900000E-01   1.00800           0
      4442 MEMB     34       POPC     P        PL        1.50000       30.9740           0
      4443 MEMB     34       POPC     O13      O2L     -0.780000       15.9994           0
      4444 MEMB     34       POPC     O14      O2L     -0.780000       15.9994           0
      4445 MEMB     34       POPC     O12      OSLP    -0.570000       15.9994           0
      4446 MEMB     34       POPC     O11      OSLP    -0.570000       15.9994           0
      4447 MEMB     34       POPC     C1       CTL2    -0.800000E-01   12.0110           0
      4448 MEMB     34       POPC     HA       HAL2     0.900000E-01   1.00800           0
      4449 MEMB     34       POPC     HB       HAL2     0.900000E-01   1.00800           0
      4450 MEMB     34       POPC     C2       CTL1     0.170000       12.0110           0
      4451 MEMB     34       POPC     HS       HAL1     0.900000E-01   1.00800           0
      4452 MEMB     34       POPC     O21      OSL     -0.490000       15.9994           0
      4453 MEMB     34       POPC     C21      CL       0.900000       12.0110           0
      4454 MEMB     34       POPC     O22      OBL     -0.630000       15.9994           0
      4455 MEMB     34       POPC     C22      CTL2    -0.220000       12.0110           0
      4456 MEMB     34       POPC     H2R      HAL2     0.900000E-01   1.00800           0
      4457 MEMB     34       POPC     H2S      HAL2     0.900000E-01   1.00800           0
      4458 MEMB     34       POPC     C3       CTL2     0.800000E-01   12.0110           0
      4459 MEMB     34       POPC     HX       HAL2     0.900000E-01   1.00800           0
      4460 MEMB     34       POPC     HY       HAL2     0.900000E-01   1.00800           0
      4461 MEMB     34       POPC     O31      OSL     -0.490000       15.9994           0
      4462 MEMB     34       POPC     C31      CL       0.900000       12.0110           0
      4463 MEMB     34       POPC     O32      OBL     -0.630000       15.9994           0
      4464 MEMB     34       POPC     C32      CTL2    -0.220000       12.0110           0
      4465 MEMB     34       POPC     H2X      HAL2     0.900000E-01   1.00800           0
      4466 MEMB     34       POPC     H2Y      HAL2     0.900000E-01   1.00800           0
      4467 MEMB     34       POPC     C23      CTL2    -0.180000       12.0110           0
      4468 MEMB     34       POPC     H3R      HAL2     0.900000E-01   1.00800           0
      4469 MEMB     34       POPC     H3S      HAL2     0.900000E-01   1.00800           0
      4470 MEMB     34       POPC     C24      CTL2    -0.180000       12.0110           0
      4471 MEMB     34       POPC     H4R      HAL2     0.900000E-01   1.00800           0
      4472 MEMB     34       POPC     H4S      HAL2     0.900000E-01   1.00800           0
      4473 MEMB     34       POPC     C25      CTL2    -0.180000       12.0110           0
      4474 MEMB     34       POPC     H5R      HAL2     0.900000E-01   1.00800           0
      4475 MEMB     34       POPC     H5S      HAL2     0.900000E-01   1.00800           0
      4476 MEMB     34       POPC     C26      CTL2    -0.180000       12.0110           0
      4477 MEMB     34       POPC     H6R      HAL2     0.900000E-01   1.00800           0
      4478 MEMB     34       POPC     H6S      HAL2     0.900000E-01   1.00800           0
      4479 MEMB     34       POPC     C27      CTL2    -0.180000       12.0110           0
      4480 MEMB     34       POPC     H7R      HAL2     0.900000E-01   1.00800           0
      4481 MEMB     34       POPC     H7S      HAL2     0.900000E-01   1.00800           0
      4482 MEMB     34       POPC     C28      CTL2    -0.180000       12.0110           0
      4483 MEMB     34       POPC     H8R      HAL2     0.900000E-01   1.00800           0
      4484 MEMB     34       POPC     H8S      HAL2     0.900000E-01   1.00800           0
      4485 MEMB     34       POPC     C29      CEL1    -0.150000       12.0110           0
      4486 MEMB     34       POPC     H91      HEL1     0.150000       1.00800           0
      4487 MEMB     34       POPC     C210     CEL1    -0.150000       12.0110           0
      4488 MEMB     34       POPC     H101     HEL1     0.150000       1.00800           0
      4489 MEMB     34       POPC     C211     CTL2    -0.180000       12.0110           0
      4490 MEMB     34       POPC     H11R     HAL2     0.900000E-01   1.00800           0
      4491 MEMB     34       POPC     H11S     HAL2     0.900000E-01   1.00800           0
      4492 MEMB     34       POPC     C212     CTL2    -0.180000       12.0110           0
      4493 MEMB     34       POPC     H12R     HAL2     0.900000E-01   1.00800           0
      4494 MEMB     34       POPC     H12S     HAL2     0.900000E-01   1.00800           0
      4495 MEMB     34       POPC     C213     CTL2    -0.180000       12.0110           0
      4496 MEMB     34       POPC     H13R     HAL2     0.900000E-01   1.00800           0
      4497 MEMB     34       POPC     H13S     HAL2     0.900000E-01   1.00800           0
      4498 MEMB     34       POPC     C214     CTL2    -0.180000       12.0110           0
      4499 MEMB     34       POPC     H14R     HAL2     0.900000E-01   1.00800           0
      4500 MEMB     34       POPC     H14S     HAL2     0.900000E-01   1.00800           0
      4501 MEMB     34       POPC     C215     CTL2    -0.180000       12.0110           0
      4502 MEMB     34       POPC     H15R     HAL2     0.900000E-01   1.00800           0
      4503 MEMB     34       POPC     H15S     HAL2     0.900000E-01   1.00800           0
      4504 MEMB     34       POPC     C216     CTL2    -0.180000       12.0110           0
      4505 MEMB     34       POPC     H16R     HAL2     0.900000E-01   1.00800           0
      4506 MEMB     34       POPC     H16S     HAL2     0.900000E-01   1.00800           0
      4507 MEMB     34       POPC     C217     CTL2    -0.180000       12.0110           0
      4508 MEMB     34       POPC     H17R     HAL2     0.900000E-01   1.00800           0
      4509 MEMB     34       POPC     H17S     HAL2     0.900000E-01   1.00800           0
      4510 MEMB     34       POPC     C218     CTL3    -0.270000       12.0110           0
      4511 MEMB     34       POPC     H18R     HAL3     0.900000E-01   1.00800           0
      4512 MEMB     34       POPC     H18S     HAL3     0.900000E-01   1.00800           0
      4513 MEMB     34       POPC     H18T     HAL3     0.900000E-01   1.00800           0
      4514 MEMB     34       POPC     C33      CTL2    -0.180000       12.0110           0
      4515 MEMB     34       POPC     H3X      HAL2     0.900000E-01   1.00800           0
      4516 MEMB     34       POPC     H3Y      HAL2     0.900000E-01   1.00800           0
      4517 MEMB     34       POPC     C34      CTL2    -0.180000       12.0110           0
      4518 MEMB     34       POPC     H4X      HAL2     0.900000E-01   1.00800           0
      4519 MEMB     34       POPC     H4Y      HAL2     0.900000E-01   1.00800           0
      4520 MEMB     34       POPC     C35      CTL2    -0.180000       12.0110           0
      4521 MEMB     34       POPC     H5X      HAL2     0.900000E-01   1.00800           0
      4522 MEMB     34       POPC     H5Y      HAL2     0.900000E-01   1.00800           0
      4523 MEMB     34       POPC     C36      CTL2    -0.180000       12.0110           0
      4524 MEMB     34       POPC     H6X      HAL2     0.900000E-01   1.00800           0
      4525 MEMB     34       POPC     H6Y      HAL2     0.900000E-01   1.00800           0
      4526 MEMB     34       POPC     C37      CTL2    -0.180000       12.0110           0
      4527 MEMB     34       POPC     H7X      HAL2     0.900000E-01   1.00800           0
      4528 MEMB     34       POPC     H7Y      HAL2     0.900000E-01   1.00800           0
      4529 MEMB     34       POPC     C38      CTL2    -0.180000       12.0110           0
      4530 MEMB     34       POPC     H8X      HAL2     0.900000E-01   1.00800           0
      4531 MEMB     34       POPC     H8Y      HAL2     0.900000E-01   1.00800           0
      4532 MEMB     34       POPC     C39      CTL2    -0.180000       12.0110           0
      4533 MEMB     34       POPC     H9X      HAL2     0.900000E-01   1.00800           0
      4534 MEMB     34       POPC     H9Y      HAL2     0.900000E-01   1.00800           0
      4535 MEMB     34       POPC     C310     CTL2    -0.180000       12.0110           0
      4536 MEMB     34       POPC     H10X     HAL2     0.900000E-01   1.00800           0
      4537 MEMB     34       POPC     H10Y     HAL2     0.900000E-01   1.00800           0
      4538 MEMB     34       POPC     C311     CTL2    -0.180000       12.0110           0
      4539 MEMB     34       POPC     H11X     HAL2     0.900000E-01   1.00800           0
      4540 MEMB     34       POPC     H11Y     HAL2     0.900000E-01   1.00800           0
      4541 MEMB     34       POPC     C312     CTL2    -0.180000       12.0110           0
      4542 MEMB     34       POPC     H12X     HAL2     0.900000E-01   1.00800           0
      4543 MEMB     34       POPC     H12Y     HAL2     0.900000E-01   1.00800           0
      4544 MEMB     34       POPC     C313     CTL2    -0.180000       12.0110           0
      4545 MEMB     34       POPC     H13X     HAL2     0.900000E-01   1.00800           0
      4546 MEMB     34       POPC     H13Y     HAL2     0.900000E-01   1.00800           0
      4547 MEMB     34       POPC     C314     CTL2    -0.180000       12.0110           0
      4548 MEMB     34       POPC     H14X     HAL2     0.900000E-01   1.00800           0
      4549 MEMB     34       POPC     H14Y     HAL2     0.900000E-01   1.00800           0
      4550 MEMB     34       POPC     C315     CTL2    -0.180000       12.0110           0
      4551 MEMB     34       POPC     H15X     HAL2     0.900000E-01   1.00800           0
      4552 MEMB     34       POPC     H15Y     HAL2     0.900000E-01   1.00800           0
      4553 MEMB     34       POPC     C316     CTL3    -0.270000       12.0110           0
      4554 MEMB     34       POPC     H16X     HAL3     0.900000E-01   1.00800           0
      4555 MEMB     34       POPC     H16Y     HAL3     0.900000E-01   1.00800           0
      4556 MEMB     34       POPC     H16Z     HAL3     0.900000E-01   1.00800           0
      4557 MEMB     35       POPC     N        NTL     -0.600000       14.0070           0
      4558 MEMB     35       POPC     C12      CTL2    -0.100000       12.0110           0
      4559 MEMB     35       POPC     H12A     HL       0.250000       1.00800           0
      4560 MEMB     35       POPC     H12B     HL       0.250000       1.00800           0
      4561 MEMB     35       POPC     C13      CTL5    -0.350000       12.0110           0
      4562 MEMB     35       POPC     H13A     HL       0.250000       1.00800           0
      4563 MEMB     35       POPC     H13B     HL       0.250000       1.00800           0
      4564 MEMB     35       POPC     H13C     HL       0.250000       1.00800           0
      4565 MEMB     35       POPC     C14      CTL5    -0.350000       12.0110           0
      4566 MEMB     35       POPC     H14A     HL       0.250000       1.00800           0
      4567 MEMB     35       POPC     H14B     HL       0.250000       1.00800           0
      4568 MEMB     35       POPC     H14C     HL       0.250000       1.00800           0
      4569 MEMB     35       POPC     C15      CTL5    -0.350000       12.0110           0
      4570 MEMB     35       POPC     H15A     HL       0.250000       1.00800           0
      4571 MEMB     35       POPC     H15B     HL       0.250000       1.00800           0
      4572 MEMB     35       POPC     H15C     HL       0.250000       1.00800           0
      4573 MEMB     35       POPC     C11      CTL2    -0.800000E-01   12.0110           0
      4574 MEMB     35       POPC     H11A     HAL2     0.900000E-01   1.00800           0
      4575 MEMB     35       POPC     H11B     HAL2     0.900000E-01   1.00800           0
      4576 MEMB     35       POPC     P        PL        1.50000       30.9740           0
      4577 MEMB     35       POPC     O13      O2L     -0.780000       15.9994           0
      4578 MEMB     35       POPC     O14      O2L     -0.780000       15.9994           0
      4579 MEMB     35       POPC     O12      OSLP    -0.570000       15.9994           0
      4580 MEMB     35       POPC     O11      OSLP    -0.570000       15.9994           0
      4581 MEMB     35       POPC     C1       CTL2    -0.800000E-01   12.0110           0
      4582 MEMB     35       POPC     HA       HAL2     0.900000E-01   1.00800           0
      4583 MEMB     35       POPC     HB       HAL2     0.900000E-01   1.00800           0
      4584 MEMB     35       POPC     C2       CTL1     0.170000       12.0110           0
      4585 MEMB     35       POPC     HS       HAL1     0.900000E-01   1.00800           0
      4586 MEMB     35       POPC     O21      OSL     -0.490000       15.9994           0
      4587 MEMB     35       POPC     C21      CL       0.900000       12.0110           0
      4588 MEMB     35       POPC     O22      OBL     -0.630000       15.9994           0
      4589 MEMB     35       POPC     C22      CTL2    -0.220000       12.0110           0
      4590 MEMB     35       POPC     H2R      HAL2     0.900000E-01   1.00800           0
      4591 MEMB     35       POPC     H2S      HAL2     0.900000E-01   1.00800           0
      4592 MEMB     35       POPC     C3       CTL2     0.800000E-01   12.0110           0
      4593 MEMB     35       POPC     HX       HAL2     0.900000E-01   1.00800           0
      4594 MEMB     35       POPC     HY       HAL2     0.900000E-01   1.00800           0
      4595 MEMB     35       POPC     O31      OSL     -0.490000       15.9994           0
      4596 MEMB     35       POPC     C31      CL       0.900000       12.0110           0
      4597 MEMB     35       POPC     O32      OBL     -0.630000       15.9994           0
      4598 MEMB     35       POPC     C32      CTL2    -0.220000       12.0110           0
      4599 MEMB     35       POPC     H2X      HAL2     0.900000E-01   1.00800           0
      4600 MEMB     35       POPC     H2Y      HAL2     0.900000E-01   1.00800           0
      4601 MEMB     35       POPC     C23      CTL2    -0.180000       12.0110           0
      4602 MEMB     35       POPC     H3R      HAL2     0.900000E-01   1.00800           0
      4603 MEMB     35       POPC     H3S      HAL2     0.900000E-01   1.00800           0
      4604 MEMB     35       POPC     C24      CTL2    -0.180000       12.0110           0
      4605 MEMB     35       POPC     H4R      HAL2     0.900000E-01   1.00800           0
      4606 MEMB     35       POPC     H4S      HAL2     0.900000E-01   1.00800           0
      4607 MEMB     35       POPC     C25      CTL2    -0.180000       12.0110           0
      4608 MEMB     35       POPC     H5R      HAL2     0.900000E-01   1.00800           0
      4609 MEMB     35       POPC     H5S      HAL2     0.900000E-01   1.00800           0
      4610 MEMB     35       POPC     C26      CTL2    -0.180000       12.0110           0
      4611 MEMB     35       POPC     H6R      HAL2     0.900000E-01   1.00800           0
      4612 MEMB     35       POPC     H6S      HAL2     0.900000E-01   1.00800           0
      4613 MEMB     35       POPC     C27      CTL2    -0.180000       12.0110           0
      4614 MEMB     35       POPC     H7R      HAL2     0.900000E-01   1.00800           0
      4615 MEMB     35       POPC     H7S      HAL2     0.900000E-01   1.00800           0
      4616 MEMB     35       POPC     C28      CTL2    -0.180000       12.0110           0
      4617 MEMB     35       POPC     H8R      HAL2     0.900000E-01   1.00800           0
      4618 MEMB     35       POPC     H8S      HAL2     0.900000E-01   1.00800           0
      4619 MEMB     35       POPC     C29      CEL1    -0.150000       12.0110           0
      4620 MEMB     35       POPC     H91      HEL1     0.150000       1.00800           0
      4621 MEMB     35       POPC     C210     CEL1    -0.150000       12.0110           0
      4622 MEMB     35       POPC     H101     HEL1     0.150000       1.00800           0
      4623 MEMB     35       POPC     C211     CTL2    -0.180000       12.0110           0
      4624 MEMB     35       POPC     H11R     HAL2     0.900000E-01   1.00800           0
      4625 MEMB     35       POPC     H11S     HAL2     0.900000E-01   1.00800           0
      4626 MEMB     35       POPC     C212     CTL2    -0.180000       12.0110           0
      4627 MEMB     35       POPC     H12R     HAL2     0.900000E-01   1.00800           0
      4628 MEMB     35       POPC     H12S     HAL2     0.900000E-01   1.00800           0
      4629 MEMB     35       POPC     C213     CTL2    -0.180000       12.0110           0
      4630 MEMB     35       POPC     H13R     HAL2     0.900000E-01   1.00800           0
      4631 MEMB     35       POPC     H13S     HAL2     0.900000E-01   1.00800           0
      4632 MEMB     35       POPC     C214     CTL2    -0.180000       12.0110           0
      4633 MEMB     35       POPC     H14R     HAL2     0.900000E-01   1.00800           0
      4634 MEMB     35       POPC     H14S     HAL2     0.900000E-01   1.00800           0
      4635 MEMB     35       POPC     C215     CTL2    -0.180000       12.0110           0
      4636 MEMB     35       POPC     H15R     HAL2     0.900000E-01   1.00800           0
      4637 MEMB     35       POPC     H15S     HAL2     0.900000E-01   1.00800           0
      4638 MEMB     35       POPC     C216     CTL2    -0.180000       12.0110           0
      4639 MEMB     35       POPC     H16R     HAL2     0.900000E-01   1.00800           0
      4640 MEMB     35       POPC     H16S     HAL2     0.900000E-01   1.00800           0
      4641 MEMB     35       POPC     C217     CTL2    -0.180000       12.0110           0
      4642 MEMB     35       POPC     H17R     HAL2     0.900000E-01   1.00800           0
      4643 MEMB     35       POPC     H17S     HAL2     0.900000E-01   1.00800           0
      4644 MEMB     35       POPC     C218     CTL3    -0.270000       12.0110           0
      4645 MEMB     35       POPC     H18R     HAL3     0.900000E-01   1.00800           0
      4646 MEMB     35       POPC     H18S     HAL3     0.900000E-01   1.00800           0
      4647 MEMB     35       POPC     H18T     HAL3     0.900000E-01   1.00800           0
      4648 MEMB     35       POPC     C33      CTL2    -0.180000       12.0110           0
      4649 MEMB     35       POPC     H3X      HAL2     0.900000E-01   1.00800           0
      4650 MEMB     35       POPC     H3Y      HAL2     0.900000E-01   1.00800           0
      4651 MEMB     35       POPC     C34      CTL2    -0.180000       12.0110           0
      4652 MEMB     35       POPC     H4X      HAL2     0.900000E-01   1.00800           0
      4653 MEMB     35       POPC     H4Y      HAL2     0.900000E-01   1.00800           0
      4654 MEMB     35       POPC     C35      CTL2    -0.180000       12.0110           0
      4655 MEMB     35       POPC     H5X      HAL2     0.900000E-01   1.00800           0
      4656 MEMB     35       POPC     H5Y      HAL2     0.900000E-01   1.00800           0
      4657 MEMB     35       POPC     C36      CTL2    -0.180000       12.0110           0
      4658 MEMB     35       POPC     H6X      HAL2     0.900000E-01   1.00800           0
      4659 MEMB     35       POPC     H6Y      HAL2     0.900000E-01   1.00800           0
      4660 MEMB     35       POPC     C37      CTL2    -0.180000       12.0110           0
      4661 MEMB     35       POPC     H7X      HAL2     0.900000E-01   1.00800           0
      4662 MEMB     35       POPC     H7Y      HAL2     0.900000E-01   1.00800           0
      4663 MEMB     35       POPC     C38      CTL2    -0.180000       12.0110           0
      4664 MEMB     35       POPC     H8X      HAL2     0.900000E-01   1.00800           0
      4665 MEMB     35       POPC     H8Y      HAL2     0.900000E-01   1.00800           0
      4666 MEMB     35       POPC     C39      CTL2    -0.180000       12.0110           0
      4667 MEMB     35       POPC     H9X      HAL2     0.900000E-01   1.00800           0
      4668 MEMB     35       POPC     H9Y      HAL2     0.900000E-01   1.00800           0
      4669 MEMB     35       POPC     C310     CTL2    -0.180000       12.0110           0
      4670 MEMB     35       POPC     H10X     HAL2     0.900000E-01   1.00800           0
      4671 MEMB     35       POPC     H10Y     HAL2     0.900000E-01   1.00800           0
      4672 MEMB     35       POPC     C311     CTL2    -0.180000       12.0110           0
      4673 MEMB     35       POPC     H11X     HAL2     0.900000E-01   1.00800           0
      4674 MEMB     35       POPC     H11Y     HAL2     0.900000E-01   1.00800           0
      4675 MEMB     35       POPC     C312     CTL2    -0.180000       12.0110           0
      4676 MEMB     35       POPC     H12X     HAL2     0.900000E-01   1.00800           0
      4677 MEMB     35       POPC     H12Y     HAL2     0.900000E-01   1.00800           0
      4678 MEMB     35       POPC     C313     CTL2    -0.180000       12.0110           0
      4679 MEMB     35       POPC     H13X     HAL2     0.900000E-01   1.00800           0
      4680 MEMB     35       POPC     H13Y     HAL2     0.900000E-01   1.00800           0
      4681 MEMB     35       POPC     C314     CTL2    -0.180000       12.0110           0
      4682 MEMB     35       POPC     H14X     HAL2     0.900000E-01   1.00800           0
      4683 MEMB     35       POPC     H14Y     HAL2     0.900000E-01   1.00800           0
      4684 MEMB     35       POPC     C315     CTL2    -0.180000       12.0110           0
      4685 MEMB     35       POPC     H15X     HAL2     0.900000E-01   1.00800           0
      4686 MEMB     35       POPC     H15Y     HAL2     0.900000E-01   1.00800           0
      4687 MEMB     35       POPC     C316     CTL3    -0.270000       12.0110           0
      4688 MEMB     35       POPC     H16X     HAL3     0.900000E-01   1.00800           0
      4689 MEMB     35       POPC     H16Y     HAL3     0.900000E-01   1.00800           0
      4690 MEMB     35       POPC     H16Z     HAL3     0.900000E-01   1.00800           0
      4691 MEMB     36       POPC     N        NTL     -0.600000       14.0070           0
      4692 MEMB     36       POPC     C12      CTL2    -0.100000       12.0110           0
      4693 MEMB     36       POPC     H12A     HL       0.250000       1.00800           0
      4694 MEMB     36       POPC     H12B     HL       0.250000       1.00800           0
      4695 MEMB     36       POPC     C13      CTL5    -0.350000       12.0110           0
      4696 MEMB     36       POPC     H13A     HL       0.250000       1.00800           0
      4697 MEMB     36       POPC     H13B     HL       0.250000       1.00800           0
      4698 MEMB     36       POPC     H13C     HL       0.250000       1.00800           0
      4699 MEMB     36       POPC     C14      CTL5    -0.350000       12.0110           0
      4700 MEMB     36       POPC     H14A     HL       0.250000       1.00800           0
      4701 MEMB     36       POPC     H14B     HL       0.250000       1.00800           0
      4702 MEMB     36       POPC     H14C     HL       0.250000       1.00800           0
      4703 MEMB     36       POPC     C15      CTL5    -0.350000       12.0110           0
      4704 MEMB     36       POPC     H15A     HL       0.250000       1.00800           0
      4705 MEMB     36       POPC     H15B     HL       0.250000       1.00800           0
      4706 MEMB     36       POPC     H15C     HL       0.250000       1.00800           0
      4707 MEMB     36       POPC     C11      CTL2    -0.800000E-01   12.0110           0
      4708 MEMB     36       POPC     H11A     HAL2     0.900000E-01   1.00800           0
      4709 MEMB     36       POPC     H11B     HAL2     0.900000E-01   1.00800           0
      4710 MEMB     36       POPC     P        PL        1.50000       30.9740           0
      4711 MEMB     36       POPC     O13      O2L     -0.780000       15.9994           0
      4712 MEMB     36       POPC     O14      O2L     -0.780000       15.9994           0
      4713 MEMB     36       POPC     O12      OSLP    -0.570000       15.9994           0
      4714 MEMB     36       POPC     O11      OSLP    -0.570000       15.9994           0
      4715 MEMB     36       POPC     C1       CTL2    -0.800000E-01   12.0110           0
      4716 MEMB     36       POPC     HA       HAL2     0.900000E-01   1.00800           0
      4717 MEMB     36       POPC     HB       HAL2     0.900000E-01   1.00800           0
      4718 MEMB     36       POPC     C2       CTL1     0.170000       12.0110           0
      4719 MEMB     36       POPC     HS       HAL1     0.900000E-01   1.00800           0
      4720 MEMB     36       POPC     O21      OSL     -0.490000       15.9994           0
      4721 MEMB     36       POPC     C21      CL       0.900000       12.0110           0
      4722 MEMB     36       POPC     O22      OBL     -0.630000       15.9994           0
      4723 MEMB     36       POPC     C22      CTL2    -0.220000       12.0110           0
      4724 MEMB     36       POPC     H2R      HAL2     0.900000E-01   1.00800           0
      4725 MEMB     36       POPC     H2S      HAL2     0.900000E-01   1.00800           0
      4726 MEMB     36       POPC     C3       CTL2     0.800000E-01   12.0110           0
      4727 MEMB     36       POPC     HX       HAL2     0.900000E-01   1.00800           0
      4728 MEMB     36       POPC     HY       HAL2     0.900000E-01   1.00800           0
      4729 MEMB     36       POPC     O31      OSL     -0.490000       15.9994           0
      4730 MEMB     36       POPC     C31      CL       0.900000       12.0110           0
      4731 MEMB     36       POPC     O32      OBL     -0.630000       15.9994           0
      4732 MEMB     36       POPC     C32      CTL2    -0.220000       12.0110           0
      4733 MEMB     36       POPC     H2X      HAL2     0.900000E-01   1.00800           0
      4734 MEMB     36       POPC     H2Y      HAL2     0.900000E-01   1.00800           0
      4735 MEMB     36       POPC     C23      CTL2    -0.180000       12.0110           0
      4736 MEMB     36       POPC     H3R      HAL2     0.900000E-01   1.00800           0
      4737 MEMB     36       POPC     H3S      HAL2     0.900000E-01   1.00800           0
      4738 MEMB     36       POPC     C24      CTL2    -0.180000       12.0110           0
      4739 MEMB     36       POPC     H4R      HAL2     0.900000E-01   1.00800           0
      4740 MEMB     36       POPC     H4S      HAL2     0.900000E-01   1.00800           0
      4741 MEMB     36       POPC     C25      CTL2    -0.180000       12.0110           0
      4742 MEMB     36       POPC     H5R      HAL2     0.900000E-01   1.00800           0
      4743 MEMB     36       POPC     H5S      HAL2     0.900000E-01   1.00800           0
      4744 MEMB     36       POPC     C26      CTL2    -0.180000       12.0110           0
      4745 MEMB     36       POPC     H6R      HAL2     0.900000E-01   1.00800           0
      4746 MEMB     36       POPC     H6S      HAL2     0.900000E-01   1.00800           0
      4747 MEMB     36       POPC     C27      CTL2    -0.180000       12.0110           0
      4748 MEMB     36       POPC     H7R      HAL2     0.900000E-01   1.00800           0
      4749 MEMB     36       POPC     H7S      HAL2     0.900000E-01   1.00800           0
      4750 MEMB     36       POPC     C28      CTL2    -0.180000       12.0110           0
      4751 MEMB     36       POPC     H8R      HAL2     0.900000E-01   1.00800           0
      4752 MEMB     36       POPC     H8S      HAL2     0.900000E-01   1.00800           0
      4753 MEMB     36       POPC     C29      CEL1    -0.150000       12.0110           0
      4754 MEMB     36       POPC     H91      HEL1     0.150000       1.00800           0
      4755 MEMB     36       POPC     C210     CEL1    -0.150000       12.0110           0
      4756 MEMB     36       POPC     H101     HEL1     0.150000       1.00800           0
      4757 MEMB     36       POPC     C211     CTL2    -0.180000       12.0110           0
      4758 MEMB     36       POPC     H11R     HAL2     0.900000E-01   1.00800           0
      4759 MEMB     36       POPC     H11S     HAL2     0.900000E-01   1.00800           0
      4760 MEMB     36       POPC     C212     CTL2    -0.180000       12.0110           0
      4761 MEMB     36       POPC     H12R     HAL2     0.900000E-01   1.00800           0
      4762 MEMB     36       POPC     H12S     HAL2     0.900000E-01   1.00800           0
      4763 MEMB     36       POPC     C213     CTL2    -0.180000       12.0110           0
      4764 MEMB     36       POPC     H13R     HAL2     0.900000E-01   1.00800           0
      4765 MEMB     36       POPC     H13S     HAL2     0.900000E-01   1.00800           0
      4766 MEMB     36       POPC     C214     CTL2    -0.180000       12.0110           0
      4767 MEMB     36       POPC     H14R     HAL2     0.900000E-01   1.00800           0
      4768 MEMB     36       POPC     H14S     HAL2     0.900000E-01   1.00800           0
      4769 MEMB     36       POPC     C215     CTL2    -0.180000       12.0110           0
      4770 MEMB     36       POPC     H15R     HAL2     0.900000E-01   1.00800           0
      4771 MEMB     36       POPC     H15S     HAL2     0.900000E-01   1.00800           0
      4772 MEMB     36       POPC     C216     CTL2    -0.180000       12.0110           0
      4773 MEMB     36       POPC     H16R     HAL2     0.900000E-01   1.00800           0
      4774 MEMB     36       POPC     H16S     HAL2     0.900000E-01   1.00800           0
      4775 MEMB     36       POPC     C217     CTL2    -0.180000       12.0110           0
      4776 MEMB     36       POPC     H17R     HAL2     0.900000E-01   1.00800           0
      4777 MEMB     36       POPC     H17S     HAL2     0.900000E-01   1.00800           0
      4778 MEMB     36       POPC     C218     CTL3    -0.270000       12.0110           0
      4779 MEMB     36       POPC     H18R     HAL3     0.900000E-01   1.00800           0
      4780 MEMB     36       POPC     H18S     HAL3     0.900000E-01   1.00800           0
      4781 MEMB     36       POPC     H18T     HAL3     0.900000E-01   1.00800           0
      4782 MEMB     36       POPC     C33      CTL2    -0.180000       12.0110           0
      4783 MEMB     36       POPC     H3X      HAL2     0.900000E-01   1.00800           0
      4784 MEMB     36       POPC     H3Y      HAL2     0.900000E-01   1.00800           0
      4785 MEMB     36       POPC     C34      CTL2    -0.180000       12.0110           0
      4786 MEMB     36       POPC     H4X      HAL2     0.900000E-01   1.00800           0
      4787 MEMB     36       POPC     H4Y      HAL2     0.900000E-01   1.00800           0
      4788 MEMB     36       POPC     C35      CTL2    -0.180000       12.0110           0
      4789 MEMB     36       POPC     H5X      HAL2     0.900000E-01   1.00800           0
      4790 MEMB     36       POPC     H5Y      HAL2     0.900000E-01   1.00800           0
      4791 MEMB     36       POPC     C36      CTL2    -0.180000       12.0110           0
      4792 MEMB     36       POPC     H6X      HAL2     0.900000E-01   1.00800           0
      4793 MEMB     36       POPC     H6Y      HAL2     0.900000E-01   1.00800           0
      4794 MEMB     36       POPC     C37      CTL2    -0.180000       12.0110           0
      4795 MEMB     36       POPC     H7X      HAL2     0.900000E-01   1.00800           0
      4796 MEMB     36       POPC     H7Y      HAL2     0.900000E-01   1.00800           0
      4797 MEMB     36       POPC     C38      CTL2    -0.180000       12.0110           0
      4798 MEMB     36       POPC     H8X      HAL2     0.900000E-01   1.00800           0
      4799 MEMB     36       POPC     H8Y      HAL2     0.900000E-01   1.00800           0
      4800 MEMB     36       POPC     C39      CTL2    -0.180000       12.0110           0
      4801 MEMB     36       POPC     H9X      HAL2     0.900000E-01   1.00800           0
      4802 MEMB     36       POPC     H9Y      HAL2     0.900000E-01   1.00800           0
      4803 MEMB     36       POPC     C310     CTL2    -0.180000       12.0110           0
      4804 MEMB     36       POPC     H10X     HAL2     0.900000E-01   1.00800           0
      4805 MEMB     36       POPC     H10Y     HAL2     0.900000E-01   1.00800           0
      4806 MEMB     36       POPC     C311     CTL2    -0.180000       12.0110           0
      4807 MEMB     36       POPC     H11X     HAL2     0.900000E-01   1.00800           0
      4808 MEMB     36       POPC     H11Y     HAL2     0.900000E-01   1.00800           0
      4809 MEMB     36       POPC     C312     CTL2    -0.180000       12.0110           0
      4810 MEMB     36       POPC     H12X     HAL2     0.900000E-01   1.00800           0
      4811 MEMB     36       POPC     H12Y     HAL2     0.900000E-01   1.00800           0
      4812 MEMB     36       POPC     C313     CTL2    -0.180000       12.0110           0
      4813 MEMB     36       POPC     H13X     HAL2     0.900000E-01   1.00800           0
      4814 MEMB     36       POPC     H13Y     HAL2     0.900000E-01   1.00800           0
      4815 MEMB     36       POPC     C314     CTL2    -0.180000       12.0110           0
      4816 MEMB     36       POPC     H14X     HAL2     0.900000E-01   1.00800           0
      4817 MEMB     36       POPC     H14Y     HAL2     0.900000E-01   1.00800           0
      4818 MEMB     36       POPC     C315     CTL2    -0.180000       12.0110           0
      4819 MEMB     36       POPC     H15X     HAL2     0.900000E-01   1.00800           0
      4820 MEMB     36       POPC     H15Y     HAL2     0.900000E-01   1.00800           0
      4821 MEMB     36       POPC     C316     CTL3    -0.270000       12.0110           0
      4822 MEMB     36       POPC     H16X     HAL3     0.900000E-01   1.00800           0
      4823 MEMB     36       POPC     H16Y     HAL3     0.900000E-01   1.00800           0
      4824 MEMB     36       POPC     H16Z     HAL3     0.900000E-01   1.00800           0
      4825 MEMB     37       POPC     N        NTL     -0.600000       14.0070           0
      4826 MEMB     37       POPC     C12      CTL2    -0.100000       12.0110           0
      4827 MEMB     37       POPC     H12A     HL       0.250000       1.00800           0
      4828 MEMB     37       POPC     H12B     HL       0.250000       1.00800           0
      4829 MEMB     37       POPC     C13      CTL5    -0.350000       12.0110           0
      4830 MEMB     37       POPC     H13A     HL       0.250000       1.00800           0
      4831 MEMB     37       POPC     H13B     HL       0.250000       1.00800           0
      4832 MEMB     37       POPC     H13C     HL       0.250000       1.00800           0
      4833 MEMB     37       POPC     C14      CTL5    -0.350000       12.0110           0
      4834 MEMB     37       POPC     H14A     HL       0.250000       1.00800           0
      4835 MEMB     37       POPC     H14B     HL       0.250000       1.00800           0
      4836 MEMB     37       POPC     H14C     HL       0.250000       1.00800           0
      4837 MEMB     37       POPC     C15      CTL5    -0.350000       12.0110           0
      4838 MEMB     37       POPC     H15A     HL       0.250000       1.00800           0
      4839 MEMB     37       POPC     H15B     HL       0.250000       1.00800           0
      4840 MEMB     37       POPC     H15C     HL       0.250000       1.00800           0
      4841 MEMB     37       POPC     C11      CTL2    -0.800000E-01   12.0110           0
      4842 MEMB     37       POPC     H11A     HAL2     0.900000E-01   1.00800           0
      4843 MEMB     37       POPC     H11B     HAL2     0.900000E-01   1.00800           0
      4844 MEMB     37       POPC     P        PL        1.50000       30.9740           0
      4845 MEMB     37       POPC     O13      O2L     -0.780000       15.9994           0
      4846 MEMB     37       POPC     O14      O2L     -0.780000       15.9994           0
      4847 MEMB     37       POPC     O12      OSLP    -0.570000       15.9994           0
      4848 MEMB     37       POPC     O11      OSLP    -0.570000       15.9994           0
      4849 MEMB     37       POPC     C1       CTL2    -0.800000E-01   12.0110           0
      4850 MEMB     37       POPC     HA       HAL2     0.900000E-01   1.00800           0
      4851 MEMB     37       POPC     HB       HAL2     0.900000E-01   1.00800           0
      4852 MEMB     37       POPC     C2       CTL1     0.170000       12.0110           0
      4853 MEMB     37       POPC     HS       HAL1     0.900000E-01   1.00800           0
      4854 MEMB     37       POPC     O21      OSL     -0.490000       15.9994           0
      4855 MEMB     37       POPC     C21      CL       0.900000       12.0110           0
      4856 MEMB     37       POPC     O22      OBL     -0.630000       15.9994           0
      4857 MEMB     37       POPC     C22      CTL2    -0.220000       12.0110           0
      4858 MEMB     37       POPC     H2R      HAL2     0.900000E-01   1.00800           0
      4859 MEMB     37       POPC     H2S      HAL2     0.900000E-01   1.00800           0
      4860 MEMB     37       POPC     C3       CTL2     0.800000E-01   12.0110           0
      4861 MEMB     37       POPC     HX       HAL2     0.900000E-01   1.00800           0
      4862 MEMB     37       POPC     HY       HAL2     0.900000E-01   1.00800           0
      4863 MEMB     37       POPC     O31      OSL     -0.490000       15.9994           0
      4864 MEMB     37       POPC     C31      CL       0.900000       12.0110           0
      4865 MEMB     37       POPC     O32      OBL     -0.630000       15.9994           0
      4866 MEMB     37       POPC     C32      CTL2    -0.220000       12.0110           0
      4867 MEMB     37       POPC     H2X      HAL2     0.900000E-01   1.00800           0
      4868 MEMB     37       POPC     H2Y      HAL2     0.900000E-01   1.00800           0
      4869 MEMB     37       POPC     C23      CTL2    -0.180000       12.0110           0
      4870 MEMB     37       POPC     H3R      HAL2     0.900000E-01   1.00800           0
      4871 MEMB     37       POPC     H3S      HAL2     0.900000E-01   1.00800           0
      4872 MEMB     37       POPC     C24      CTL2    -0.180000       12.0110           0
      4873 MEMB     37       POPC     H4R      HAL2     0.900000E-01   1.00800           0
      4874 MEMB     37       POPC     H4S      HAL2     0.900000E-01   1.00800           0
      4875 MEMB     37       POPC     C25      CTL2    -0.180000       12.0110           0
      4876 MEMB     37       POPC     H5R      HAL2     0.900000E-01   1.00800           0
      4877 MEMB     37       POPC     H5S      HAL2     0.900000E-01   1.00800           0
      4878 MEMB     37       POPC     C26      CTL2    -0.180000       12.0110           0
      4879 MEMB     37       POPC     H6R      HAL2     0.900000E-01   1.00800           0
      4880 MEMB     37       POPC     H6S      HAL2     0.900000E-01   1.00800           0
      4881 MEMB     37       POPC     C27      CTL2    -0.180000       12.0110           0
      4882 MEMB     37       POPC     H7R      HAL2     0.900000E-01   1.00800           0
      4883 MEMB     37       POPC     H7S      HAL2     0.900000E-01   1.00800           0
      4884 MEMB     37       POPC     C28      CTL2    -0.180000       12.0110           0
      4885 MEMB     37       POPC     H8R      HAL2     0.900000E-01   1.00800           0
      4886 MEMB     37       POPC     H8S      HAL2     0.900000E-01   1.00800           0
      4887 MEMB     37       POPC     C29      CEL1    -0.150000       12.0110           0
      4888 MEMB     37       POPC     H91      HEL1     0.150000       1.00800           0
      4889 MEMB     37       POPC     C210     CEL1    -0.150000       12.0110           0
      4890 MEMB     37       POPC     H101     HEL1     0.150000       1.00800           0
      4891 MEMB     37       POPC     C211     CTL2    -0.180000       12.0110           0
      4892 MEMB     37       POPC     H11R     HAL2     0.900000E-01   1.00800           0
      4893 MEMB     37       POPC     H11S     HAL2     0.900000E-01   1.00800           0
      4894 MEMB     37       POPC     C212     CTL2    -0.180000       12.0110           0
      4895 MEMB     37       POPC     H12R     HAL2     0.900000E-01   1.00800           0
      4896 MEMB     37       POPC     H12S     HAL2     0.900000E-01   1.00800           0
      4897 MEMB     37       POPC     C213     CTL2    -0.180000       12.0110           0
      4898 MEMB     37       POPC     H13R     HAL2     0.900000E-01   1.00800           0
      4899 MEMB     37       POPC     H13S     HAL2     0.900000E-01   1.00800           0
      4900 MEMB     37       POPC     C214     CTL2    -0.180000       12.0110           0
      4901 MEMB     37       POPC     H14R     HAL2     0.900000E-01   1.00800           0
      4902 MEMB     37       POPC     H14S     HAL2     0.900000E-01   1.00800           0
      4903 MEMB     37       POPC     C215     CTL2    -0.180000       12.0110           0
      4904 MEMB     37       POPC     H15R     HAL2     0.900000E-01   1.00800           0
      4905 MEMB     37       POPC     H15S     HAL2     0.900000E-01   1.00800           0
      4906 MEMB     37       POPC     C216     CTL2    -0.180000       12.0110           0
      4907 MEMB     37       POPC     H16R     HAL2     0.900000E-01   1.00800           0
      4908 MEMB     37       POPC     H16S     HAL2     0.900000E-01   1.00800           0
      4909 MEMB     37       POPC     C217     CTL2    -0.180000       12.0110           0
      4910 MEMB     37       POPC     H17R     HAL2     0.900000E-01   1.00800           0
      4911 MEMB     37       POPC     H17S     HAL2     0.900000E-01   1.00800           0
      4912 MEMB     37       POPC     C218     CTL3    -0.270000       12.0110           0
      4913 MEMB     37       POPC     H18R     HAL3     0.900000E-01   1.00800           0
      4914 MEMB     37       POPC     H18S     HAL3     0.900000E-01   1.00800           0
      4915 MEMB     37       POPC     H18T     HAL3     0.900000E-01   1.00800           0
      4916 MEMB     37       POPC     C33      CTL2    -0.180000       12.0110           0
      4917 MEMB     37       POPC     H3X      HAL2     0.900000E-01   1.00800           0
      4918 MEMB     37       POPC     H3Y      HAL2     0.900000E-01   1.00800           0
      4919 MEMB     37       POPC     C34      CTL2    -0.180000       12.0110           0
      4920 MEMB     37       POPC     H4X      HAL2     0.900000E-01   1.00800           0
      4921 MEMB     37       POPC     H4Y      HAL2     0.900000E-01   1.00800           0
      4922 MEMB     37       POPC     C35      CTL2    -0.180000       12.0110           0
      4923 MEMB     37       POPC     H5X      HAL2     0.900000E-01   1.00800           0
      4924 MEMB     37       POPC     H5Y      HAL2     0.900000E-01   1.00800           0
      4925 MEMB     37       POPC     C36      CTL2    -0.180000       12.0110           0
      4926 MEMB     37       POPC     H6X      HAL2     0.900000E-01   1.00800           0
      4927 MEMB     37       POPC     H6Y      HAL2     0.900000E-01   1.00800           0
      4928 MEMB     37       POPC     C37      CTL2    -0.180000       12.0110           0
      4929 MEMB     37       POPC     H7X      HAL2     0.900000E-01   1.00800           0
      4930 MEMB     37       POPC     H7Y      HAL2     0.900000E-01   1.00800           0
      4931 MEMB     37       POPC     C38      CTL2    -0.180000       12.0110           0
      4932 MEMB     37       POPC     H8X      HAL2     0.900000E-01   1.00800           0
      4933 MEMB     37       POPC     H8Y      HAL2     0.900000E-01   1.00800           0
      4934 MEMB     37       POPC     C39      CTL2    -0.180000       12.0110           0
      4935 MEMB     37       POPC     H9X      HAL2     0.900000E-01   1.00800           0
      4936 MEMB     37       POPC     H9Y      HAL2     0.900000E-01   1.00800           0
      4937 MEMB     37       POPC     C310     CTL2    -0.180000       12.0110           0
      4938 MEMB     37       POPC     H10X     HAL2     0.900000E-01   1.00800           0
      4939 MEMB     37       POPC     H10Y     HAL2     0.900000E-01   1.00800           0
      4940 MEMB     37       POPC     C311     CTL2    -0.180000       12.0110           0
      4941 MEMB     37       POPC     H11X     HAL2     0.900000E-01   1.00800           0
      4942 MEMB     37       POPC     H11Y     HAL2     0.900000E-01   1.00800           0
      4943 MEMB     37       POPC     C312     CTL2    -0.180000       12.0110           0
      4944 MEMB     37       POPC     H12X     HAL2     0.900000E-01   1.00800           0
      4945 MEMB     37       POPC     H12Y     HAL2     0.900000E-01   1.00800           0
      4946 MEMB     37       POPC     C313     CTL2    -0.180000       12.0110           0
      4947 MEMB     37       POPC     H13X     HAL2     0.900000E-01   1.00800           0
      4948 MEMB     37       POPC     H13Y     HAL2     0.900000E-01   1.00800           0
      4949 MEMB     37       POPC     C314     CTL2    -0.180000       12.0110           0
      4950 MEMB     37       POPC     H14X     HAL2     0.900000E-01   1.00800           0
      4951 MEMB     37       POPC     H14Y     HAL2     0.900000E-01   1.00800           0
      4952 MEMB     37       POPC     C315     CTL2    -0.180000       12.0110           0
      4953 MEMB     37       POPC     H15X     HAL2     0.900000E-01   1.00800           0
      4954 MEMB     37       POPC     H15Y     HAL2     0.900000E-01   1.00800           0
      4955 MEMB     37       POPC     C316     CTL3    -0.270000       12.0110           0
      4956 MEMB     37       POPC     H16X     HAL3     0.900000E-01   1.00800           0
      4957 MEMB     37       POPC     H16Y     HAL3     0.900000E-01   1.00800           0
      4958 MEMB     37       POPC     H16Z     HAL3     0.900000E-01   1.00800           0
      4959 MEMB     38       POPC     N        NTL     -0.600000       14.0070           0
      4960 MEMB     38       POPC     C12      CTL2    -0.100000       12.0110           0
      4961 MEMB     38       POPC     H12A     HL       0.250000       1.00800           0
      4962 MEMB     38       POPC     H12B     HL       0.250000       1.00800           0
      4963 MEMB     38       POPC     C13      CTL5    -0.350000       12.0110           0
      4964 MEMB     38       POPC     H13A     HL       0.250000       1.00800           0
      4965 MEMB     38       POPC     H13B     HL       0.250000       1.00800           0
      4966 MEMB     38       POPC     H13C     HL       0.250000       1.00800           0
      4967 MEMB     38       POPC     C14      CTL5    -0.350000       12.0110           0
      4968 MEMB     38       POPC     H14A     HL       0.250000       1.00800           0
      4969 MEMB     38       POPC     H14B     HL       0.250000       1.00800           0
      4970 MEMB     38       POPC     H14C     HL       0.250000       1.00800           0
      4971 MEMB     38       POPC     C15      CTL5    -0.350000       12.0110           0
      4972 MEMB     38       POPC     H15A     HL       0.250000       1.00800           0
      4973 MEMB     38       POPC     H15B     HL       0.250000       1.00800           0
      4974 MEMB     38       POPC     H15C     HL       0.250000       1.00800           0
      4975 MEMB     38       POPC     C11      CTL2    -0.800000E-01   12.0110           0
      4976 MEMB     38       POPC     H11A     HAL2     0.900000E-01   1.00800           0
      4977 MEMB     38       POPC     H11B     HAL2     0.900000E-01   1.00800           0
      4978 MEMB     38       POPC     P        PL        1.50000       30.9740           0
      4979 MEMB     38       POPC     O13      O2L     -0.780000       15.9994           0
      4980 MEMB     38       POPC     O14      O2L     -0.780000       15.9994           0
      4981 MEMB     38       POPC     O12      OSLP    -0.570000       15.9994           0
      4982 MEMB     38       POPC     O11      OSLP    -0.570000       15.9994           0
      4983 MEMB     38       POPC     C1       CTL2    -0.800000E-01   12.0110           0
      4984 MEMB     38       POPC     HA       HAL2     0.900000E-01   1.00800           0
      4985 MEMB     38       POPC     HB       HAL2     0.900000E-01   1.00800           0
      4986 MEMB     38       POPC     C2       CTL1     0.170000       12.0110           0
      4987 MEMB     38       POPC     HS       HAL1     0.900000E-01   1.00800           0
      4988 MEMB     38       POPC     O21      OSL     -0.490000       15.9994           0
      4989 MEMB     38       POPC     C21      CL       0.900000       12.0110           0
      4990 MEMB     38       POPC     O22      OBL     -0.630000       15.9994           0
      4991 MEMB     38       POPC     C22      CTL2    -0.220000       12.0110           0
      4992 MEMB     38       POPC     H2R      HAL2     0.900000E-01   1.00800           0
      4993 MEMB     38       POPC     H2S      HAL2     0.900000E-01   1.00800           0
      4994 MEMB     38       POPC     C3       CTL2     0.800000E-01   12.0110           0
      4995 MEMB     38       POPC     HX       HAL2     0.900000E-01   1.00800           0
      4996 MEMB     38       POPC     HY       HAL2     0.900000E-01   1.00800           0
      4997 MEMB     38       POPC     O31      OSL     -0.490000       15.9994           0
      4998 MEMB     38       POPC     C31      CL       0.900000       12.0110           0
      4999 MEMB     38       POPC     O32      OBL     -0.630000       15.9994           0
      5000 MEMB     38       POPC     C32      CTL2    -0.220000       12.0110           0
      5001 MEMB     38       POPC     H2X      HAL2     0.900000E-01   1.00800           0
      5002 MEMB     38       POPC     H2Y      HAL2     0.900000E-01   1.00800           0
      5003 MEMB     38       POPC     C23      CTL2    -0.180000       12.0110           0
      5004 MEMB     38       POPC     H3R      HAL2     0.900000E-01   1.00800           0
      5005 MEMB     38       POPC     H3S      HAL2     0.900000E-01   1.00800           0
      5006 MEMB     38       POPC     C24      CTL2    -0.180000       12.0110           0
      5007 MEMB     38       POPC     H4R      HAL2     0.900000E-01   1.00800           0
      5008 MEMB     38       POPC     H4S      HAL2     0.900000E-01   1.00800           0
      5009 MEMB     38       POPC     C25      CTL2    -0.180000       12.0110           0
      5010 MEMB     38       POPC     H5R      HAL2     0.900000E-01   1.00800           0
      5011 MEMB     38       POPC     H5S      HAL2     0.900000E-01   1.00800           0
      5012 MEMB     38       POPC     C26      CTL2    -0.180000       12.0110           0
      5013 MEMB     38       POPC     H6R      HAL2     0.900000E-01   1.00800           0
      5014 MEMB     38       POPC     H6S      HAL2     0.900000E-01   1.00800           0
      5015 MEMB     38       POPC     C27      CTL2    -0.180000       12.0110           0
      5016 MEMB     38       POPC     H7R      HAL2     0.900000E-01   1.00800           0
      5017 MEMB     38       POPC     H7S      HAL2     0.900000E-01   1.00800           0
      5018 MEMB     38       POPC     C28      CTL2    -0.180000       12.0110           0
      5019 MEMB     38       POPC     H8R      HAL2     0.900000E-01   1.00800           0
      5020 MEMB     38       POPC     H8S      HAL2     0.900000E-01   1.00800           0
      5021 MEMB     38       POPC     C29      CEL1    -0.150000       12.0110           0
      5022 MEMB     38       POPC     H91      HEL1     0.150000       1.00800           0
      5023 MEMB     38       POPC     C210     CEL1    -0.150000       12.0110           0
      5024 MEMB     38       POPC     H101     HEL1     0.150000       1.00800           0
      5025 MEMB     38       POPC     C211     CTL2    -0.180000       12.0110           0
      5026 MEMB     38       POPC     H11R     HAL2     0.900000E-01   1.00800           0
      5027 MEMB     38       POPC     H11S     HAL2     0.900000E-01   1.00800           0
      5028 MEMB     38       POPC     C212     CTL2    -0.180000       12.0110           0
      5029 MEMB     38       POPC     H12R     HAL2     0.900000E-01   1.00800           0
      5030 MEMB     38       POPC     H12S     HAL2     0.900000E-01   1.00800           0
      5031 MEMB     38       POPC     C213     CTL2    -0.180000       12.0110           0
      5032 MEMB     38       POPC     H13R     HAL2     0.900000E-01   1.00800           0
      5033 MEMB     38       POPC     H13S     HAL2     0.900000E-01   1.00800           0
      5034 MEMB     38       POPC     C214     CTL2    -0.180000       12.0110           0
      5035 MEMB     38       POPC     H14R     HAL2     0.900000E-01   1.00800           0
      5036 MEMB     38       POPC     H14S     HAL2     0.900000E-01   1.00800           0
      5037 MEMB     38       POPC     C215     CTL2    -0.180000       12.0110           0
      5038 MEMB     38       POPC     H15R     HAL2     0.900000E-01   1.00800           0
      5039 MEMB     38       POPC     H15S     HAL2     0.900000E-01   1.00800           0
      5040 MEMB     38       POPC     C216     CTL2    -0.180000       12.0110           0
      5041 MEMB     38       POPC     H16R     HAL2     0.900000E-01   1.00800           0
      5042 MEMB     38       POPC     H16S     HAL2     0.900000E-01   1.00800           0
      5043 MEMB     38       POPC     C217     CTL2    -0.180000       12.0110           0
      5044 MEMB     38       POPC     H17R     HAL2     0.900000E-01   1.00800           0
      5045 MEMB     38       POPC     H17S     HAL2     0.900000E-01   1.00800           0
      5046 MEMB     38       POPC     C218     CTL3    -0.270000       12.0110           0
      5047 MEMB     38       POPC     H18R     HAL3     0.900000E-01   1.00800           0
      5048 MEMB     38       POPC     H18S     HAL3     0.900000E-01   1.00800           0
      5049 MEMB     38       POPC     H18T     HAL3     0.900000E-01   1.00800           0
      5050 MEMB     38       POPC     C33      CTL2    -0.180000       12.0110           0
      5051 MEMB     38       POPC     H3X      HAL2     0.900000E-01   1.00800           0
      5052 MEMB     38       POPC     H3Y      HAL2     0.900000E-01   1.00800           0
      5053 MEMB     38       POPC     C34      CTL2    -0.180000       12.0110           0
      5054 MEMB     38       POPC     H4X      HAL2     0.900000E-01   1.00800           0
      5055 MEMB     38       POPC     H4Y      HAL2     0.900000E-01   1.00800           0
      5056 MEMB     38       POPC     C35      CTL2    -0.180000       12.0110           0
      5057 MEMB     38       POPC     H5X      HAL2     0.900000E-01   1.00800           0
      5058 MEMB     38       POPC     H5Y      HAL2     0.900000E-01   1.00800           0
      5059 MEMB     38       POPC     C36      CTL2    -0.180000       12.0110           0
      5060 MEMB     38       POPC     H6X      HAL2     0.900000E-01   1.00800           0
      5061 MEMB     38       POPC     H6Y      HAL2     0.900000E-01   1.00800           0
      5062 MEMB     38       POPC     C37      CTL2    -0.180000       12.0110           0
      5063 MEMB     38       POPC     H7X      HAL2     0.900000E-01   1.00800           0
      5064 MEMB     38       POPC     H7Y      HAL2     0.900000E-01   1.00800           0
      5065 MEMB     38       POPC     C38      CTL2    -0.180000       12.0110           0
      5066 MEMB     38       POPC     H8X      HAL2     0.900000E-01   1.00800           0
      5067 MEMB     38       POPC     H8Y      HAL2     0.900000E-01   1.00800           0
      5068 MEMB     38       POPC     C39      CTL2    -0.180000       12.0110           0
      5069 MEMB     38       POPC     H9X      HAL2     0.900000E-01   1.00800           0
      5070 MEMB     38       POPC     H9Y      HAL2     0.900000E-01   1.00800           0
      5071 MEMB     38       POPC     C310     CTL2    -0.180000       12.0110           0
      5072 MEMB     38       POPC     H10X     HAL2     0.900000E-01   1.00800           0
      5073 MEMB     38       POPC     H10Y     HAL2     0.900000E-01   1.00800           0
      5074 MEMB     38       POPC     C311     CTL2    -0.180000       12.0110           0
      5075 MEMB     38       POPC     H11X     HAL2     0.900000E-01   1.00800           0
      5076 MEMB     38       POPC     H11Y     HAL2     0.900000E-01   1.00800           0
      5077 MEMB     38       POPC     C312     CTL2    -0.180000       12.0110           0
      5078 MEMB     38       POPC     H12X     HAL2     0.900000E-01   1.00800           0
      5079 MEMB     38       POPC     H12Y     HAL2     0.900000E-01   1.00800           0
      5080 MEMB     38       POPC     C313     CTL2    -0.180000       12.0110           0
      5081 MEMB     38       POPC     H13X     HAL2     0.900000E-01   1.00800           0
      5082 MEMB     38       POPC     H13Y     HAL2     0.900000E-01   1.00800           0
      5083 MEMB     38       POPC     C314     CTL2    -0.180000       12.0110           0
      5084 MEMB     38       POPC     H14X     HAL2     0.900000E-01   1.00800           0
      5085 MEMB     38       POPC     H14Y     HAL2     0.900000E-01   1.00800           0
      5086 MEMB     38       POPC     C315     CTL2    -0.180000       12.0110           0
      5087 MEMB     38       POPC     H15X     HAL2     0.900000E-01   1.00800           0
      5088 MEMB     38       POPC     H15Y     HAL2     0.900000E-01   1.00800           0
      5089 MEMB     38       POPC     C316     CTL3    -0.270000       12.0110           0
      5090 MEMB     38       POPC     H16X     HAL3     0.900000E-01   1.00800           0
      5091 MEMB     38       POPC     H16Y     HAL3     0.900000E-01   1.00800           0
      5092 MEMB     38       POPC     H16Z     HAL3     0.900000E-01   1.00800           0
      5093 MEMB     39       POPC     N        NTL     -0.600000       14.0070           0
      5094 MEMB     39       POPC     C12      CTL2    -0.100000       12.0110           0
      5095 MEMB     39       POPC     H12A     HL       0.250000       1.00800           0
      5096 MEMB     39       POPC     H12B     HL       0.250000       1.00800           0
      5097 MEMB     39       POPC     C13      CTL5    -0.350000       12.0110           0
      5098 MEMB     39       POPC     H13A     HL       0.250000       1.00800           0
      5099 MEMB     39       POPC     H13B     HL       0.250000       1.00800           0
      5100 MEMB     39       POPC     H13C     HL       0.250000       1.00800           0
      5101 MEMB     39       POPC     C14      CTL5    -0.350000       12.0110           0
      5102 MEMB     39       POPC     H14A     HL       0.250000       1.00800           0
      5103 MEMB     39       POPC     H14B     HL       0.250000       1.00800           0
      5104 MEMB     39       POPC     H14C     HL       0.250000       1.00800           0
      5105 MEMB     39       POPC     C15      CTL5    -0.350000       12.0110           0
      5106 MEMB     39       POPC     H15A     HL       0.250000       1.00800           0
      5107 MEMB     39       POPC     H15B     HL       0.250000       1.00800           0
      5108 MEMB     39       POPC     H15C     HL       0.250000       1.00800           0
      5109 MEMB     39       POPC     C11      CTL2    -0.800000E-01   12.0110           0
      5110 MEMB     39       POPC     H11A     HAL2     0.900000E-01   1.00800           0
      5111 MEMB     39       POPC     H11B     HAL2     0.900000E-01   1.00800           0
      5112 MEMB     39       POPC     P        PL        1.50000       30.9740           0
      5113 MEMB     39       POPC     O13      O2L     -0.780000       15.9994           0
      5114 MEMB     39       POPC     O14      O2L     -0.780000       15.9994           0
      5115 MEMB     39       POPC     O12      OSLP    -0.570000       15.9994           0
      5116 MEMB     39       POPC     O11      OSLP    -0.570000       15.9994           0
      5117 MEMB     39       POPC     C1       CTL2    -0.800000E-01   12.0110           0
      5118 MEMB     39       POPC     HA       HAL2     0.900000E-01   1.00800           0
      5119 MEMB     39       POPC     HB       HAL2     0.900000E-01   1.00800           0
      5120 MEMB     39       POPC     C2       CTL1     0.170000       12.0110           0
      5121 MEMB     39       POPC     HS       HAL1     0.900000E-01   1.00800           0
      5122 MEMB     39       POPC     O21      OSL     -0.490000       15.9994           0
      5123 MEMB     39       POPC     C21      CL       0.900000       12.0110           0
      5124 MEMB     39       POPC     O22      OBL     -0.630000       15.9994           0
      5125 MEMB     39       POPC     C22      CTL2    -0.220000       12.0110           0
      5126 MEMB     39       POPC     H2R      HAL2     0.900000E-01   1.00800           0
      5127 MEMB     39       POPC     H2S      HAL2     0.900000E-01   1.00800           0
      5128 MEMB     39       POPC     C3       CTL2     0.800000E-01   12.0110           0
      5129 MEMB     39       POPC     HX       HAL2     0.900000E-01   1.00800           0
      5130 MEMB     39       POPC     HY       HAL2     0.900000E-01   1.00800           0
      5131 MEMB     39       POPC     O31      OSL     -0.490000       15.9994           0
      5132 MEMB     39       POPC     C31      CL       0.900000       12.0110           0
      5133 MEMB     39       POPC     O32      OBL     -0.630000       15.9994           0
      5134 MEMB     39       POPC     C32      CTL2    -0.220000       12.0110           0
      5135 MEMB     39       POPC     H2X      HAL2     0.900000E-01   1.00800           0
      5136 MEMB     39       POPC     H2Y      HAL2     0.900000E-01   1.00800           0
      5137 MEMB     39       POPC     C23      CTL2    -0.180000       12.0110           0
      5138 MEMB     39       POPC     H3R      HAL2     0.900000E-01   1.00800           0
      5139 MEMB     39       POPC     H3S      HAL2     0.900000E-01   1.00800           0
      5140 MEMB     39       POPC     C24      CTL2    -0.180000       12.0110           0
      5141 MEMB     39       POPC     H4R      HAL2     0.900000E-01   1.00800           0
      5142 MEMB     39       POPC     H4S      HAL2     0.900000E-01   1.00800           0
      5143 MEMB     39       POPC     C25      CTL2    -0.180000       12.0110           0
      5144 MEMB     39       POPC     H5R      HAL2     0.900000E-01   1.00800           0
      5145 MEMB     39       POPC     H5S      HAL2     0.900000E-01   1.00800           0
      5146 MEMB     39       POPC     C26      CTL2    -0.180000       12.0110           0
      5147 MEMB     39       POPC     H6R      HAL2     0.900000E-01   1.00800           0
      5148 MEMB     39       POPC     H6S      HAL2     0.900000E-01   1.00800           0
      5149 MEMB     39       POPC     C27      CTL2    -0.180000       12.0110           0
      5150 MEMB     39       POPC     H7R      HAL2     0.900000E-01   1.00800           0
      5151 MEMB     39       POPC     H7S      HAL2     0.900000E-01   1.00800           0
      5152 MEMB     39       POPC     C28      CTL2    -0.180000       12.0110           0
      5153 MEMB     39       POPC     H8R      HAL2     0.900000E-01   1.00800           0
      5154 MEMB     39       POPC     H8S      HAL2     0.900000E-01   1.00800           0
      5155 MEMB     39       POPC     C29      CEL1    -0.150000       12.0110           0
      5156 MEMB     39       POPC     H91      HEL1     0.150000       1.00800           0
      5157 MEMB     39       POPC     C210     CEL1    -0.150000       12.0110           0
      5158 MEMB     39       POPC     H101     HEL1     0.150000       1.00800           0
      5159 MEMB     39       POPC     C211     CTL2    -0.180000       12.0110           0
      5160 MEMB     39       POPC     H11R     HAL2     0.900000E-01   1.00800           0
      5161 MEMB     39       POPC     H11S     HAL2     0.900000E-01   1.00800           0
      5162 MEMB     39       POPC     C212     CTL2    -0.180000       12.0110           0
      5163 MEMB     39       POPC     H12R     HAL2     0.900000E-01   1.00800           0
      5164 MEMB     39       POPC     H12S     HAL2     0.900000E-01   1.00800           0
      5165 MEMB     39       POPC     C213     CTL2    -0.180000       12.0110           0
      5166 MEMB     39       POPC     H13R     HAL2     0.900000E-01   1.00800           0
      5167 MEMB     39       POPC     H13S     HAL2     0.900000E-01   1.00800           0
      5168 MEMB     39       POPC     C214     CTL2    -0.180000       12.0110           0
      5169 MEMB     39       POPC     H14R     HAL2     0.900000E-01   1.00800           0
      5170 MEMB     39       POPC     H14S     HAL2     0.900000E-01   1.00800           0
      5171 MEMB     39       POPC     C215     CTL2    -0.180000       12.0110           0
      5172 MEMB     39       POPC     H15R     HAL2     0.900000E-01   1.00800           0
      5173 MEMB     39       POPC     H15S     HAL2     0.900000E-01   1.00800           0
      5174 MEMB     39       POPC     C216     CTL2    -0.180000       12.0110           0
      5175 MEMB     39       POPC     H16R     HAL2     0.900000E-01   1.00800           0
      5176 MEMB     39       POPC     H16S     HAL2     0.900000E-01   1.00800           0
      5177 MEMB     39       POPC     C217     CTL2    -0.180000       12.0110           0
      5178 MEMB     39       POPC     H17R     HAL2     0.900000E-01   1.00800           0
      5179 MEMB     39       POPC     H17S     HAL2     0.900000E-01   1.00800           0
      5180 MEMB     39       POPC     C218     CTL3    -0.270000       12.0110           0
      5181 MEMB     39       POPC     H18R     HAL3     0.900000E-01   1.00800           0
      5182 MEMB     39       POPC     H18S     HAL3     0.900000E-01   1.00800           0
      5183 MEMB     39       POPC     H18T     HAL3     0.900000E-01   1.00800           0
      5184 MEMB     39       POPC     C33      CTL2    -0.180000       12.0110           0
      5185 MEMB     39       POPC     H3X      HAL2     0.900000E-01   1.00800           0
      5186 MEMB     39       POPC     H3Y      HAL2     0.900000E-01   1.00800           0
      5187 MEMB     39       POPC     C34      CTL2    -0.180000       12.0110           0
      5188 MEMB     39       POPC     H4X      HAL2     0.900000E-01   1.00800           0
      5189 MEMB     39       POPC     H4Y      HAL2     0.900000E-01   1.00800           0
      5190 MEMB     39       POPC     C35      CTL2    -0.180000       12.0110           0
      5191 MEMB     39       POPC     H5X      HAL2     0.900000E-01   1.00800           0
      5192 MEMB     39       POPC     H5Y      HAL2     0.900000E-01   1.00800           0
      5193 MEMB     39       POPC     C36      CTL2    -0.180000       12.0110           0
      5194 MEMB     39       POPC     H6X      HAL2     0.900000E-01   1.00800           0
      5195 MEMB     39       POPC     H6Y      HAL2     0.900000E-01   1.00800           0
      5196 MEMB     39       POPC     C37      CTL2    -0.180000       12.0110           0
      5197 MEMB     39       POPC     H7X      HAL2     0.900000E-01   1.00800           0
      5198 MEMB     39       POPC     H7Y      HAL2     0.900000E-01   1.00800           0
      5199 MEMB     39       POPC     C38      CTL2    -0.180000       12.0110           0
      5200 MEMB     39       POPC     H8X      HAL2     0.900000E-01   1.00800           0
      5201 MEMB     39       POPC     H8Y      HAL2     0.900000E-01   1.00800           0
      5202 MEMB     39       POPC     C39      CTL2    -0.180000       12.0110           0
      5203 MEMB     39       POPC     H9X      HAL2     0.900000E-01   1.00800           0
      5204 MEMB     39       POPC     H9Y      HAL2     0.900000E-01   1.00800           0
      5205 MEMB     39       POPC     C310     CTL2    -0.180000       12.0110           0
      5206 MEMB     39       POPC     H10X     HAL2     0.900000E-01   1.00800           0
      5207 MEMB     39       POPC     H10Y     HAL2     0.900000E-01   1.00800           0
      5208 MEMB     39       POPC     C311     CTL2    -0.180000       12.0110           0
      5209 MEMB     39       POPC     H11X     HAL2     0.900000E-01   1.00800           0
      5210 MEMB     39       POPC     H11Y     HAL2     0.900000E-01   1.00800           0
      5211 MEMB     39       POPC     C312     CTL2    -0.180000       12.0110           0
      5212 MEMB     39       POPC     H12X     HAL2     0.900000E-01   1.00800           0
      5213 MEMB     39       POPC     H12Y     HAL2     0.900000E-01   1.00800           0
      5214 MEMB     39       POPC     C313     CTL2    -0.180000       12.0110           0
      5215 MEMB     39       POPC     H13X     HAL2     0.900000E-01   1.00800           0
      5216 MEMB     39       POPC     H13Y     HAL2     0.900000E-01   1.00800           0
      5217 MEMB     39       POPC     C314     CTL2    -0.180000       12.0110           0
      5218 MEMB     39       POPC     H14X     HAL2     0.900000E-01   1.00800           0
      5219 MEMB     39       POPC     H14Y     HAL2     0.900000E-01   1.00800           0
      5220 MEMB     39       POPC     C315     CTL2    -0.180000       12.0110           0
      5221 MEMB     39       POPC     H15X     HAL2     0.900000E-01   1.00800           0
      5222 MEMB     39       POPC     H15Y     HAL2     0.900000E-01   1.00800           0
      5223 MEMB     39       POPC     C316     CTL3    -0.270000       12.0110           0
      5224 MEMB     39       POPC     H16X     HAL3     0.900000E-01   1.00800           0
      5225 MEMB     39       POPC     H16Y     HAL3     0.900000E-01   1.00800           0
      5226 MEMB     39       POPC     H16Z     HAL3     0.900000E-01   1.00800           0
      5227 MEMB     40       POPC     N        NTL     -0.600000       14.0070           0
      5228 MEMB     40       POPC     C12      CTL2    -0.100000       12.0110           0
      5229 MEMB     40       POPC     H12A     HL       0.250000       1.00800           0
      5230 MEMB     40       POPC     H12B     HL       0.250000       1.00800           0
      5231 MEMB     40       POPC     C13      CTL5    -0.350000       12.0110           0
      5232 MEMB     40       POPC     H13A     HL       0.250000       1.00800           0
      5233 MEMB     40       POPC     H13B     HL       0.250000       1.00800           0
      5234 MEMB     40       POPC     H13C     HL       0.250000       1.00800           0
      5235 MEMB     40       POPC     C14      CTL5    -0.350000       12.0110           0
      5236 MEMB     40       POPC     H14A     HL       0.250000       1.00800           0
      5237 MEMB     40       POPC     H14B     HL       0.250000       1.00800           0
      5238 MEMB     40       POPC     H14C     HL       0.250000       1.00800           0
      5239 MEMB     40       POPC     C15      CTL5    -0.350000       12.0110           0
      5240 MEMB     40       POPC     H15A     HL       0.250000       1.00800           0
      5241 MEMB     40       POPC     H15B     HL       0.250000       1.00800           0
      5242 MEMB     40       POPC     H15C     HL       0.250000       1.00800           0
      5243 MEMB     40       POPC     C11      CTL2    -0.800000E-01   12.0110           0
      5244 MEMB     40       POPC     H11A     HAL2     0.900000E-01   1.00800           0
      5245 MEMB     40       POPC     H11B     HAL2     0.900000E-01   1.00800           0
      5246 MEMB     40       POPC     P        PL        1.50000       30.9740           0
      5247 MEMB     40       POPC     O13      O2L     -0.780000       15.9994           0
      5248 MEMB     40       POPC     O14      O2L     -0.780000       15.9994           0
      5249 MEMB     40       POPC     O12      OSLP    -0.570000       15.9994           0
      5250 MEMB     40       POPC     O11      OSLP    -0.570000       15.9994           0
      5251 MEMB     40       POPC     C1       CTL2    -0.800000E-01   12.0110           0
      5252 MEMB     40       POPC     HA       HAL2     0.900000E-01   1.00800           0
      5253 MEMB     40       POPC     HB       HAL2     0.900000E-01   1.00800           0
      5254 MEMB     40       POPC     C2       CTL1     0.170000       12.0110           0
      5255 MEMB     40       POPC     HS       HAL1     0.900000E-01   1.00800           0
      5256 MEMB     40       POPC     O21      OSL     -0.490000       15.9994           0
      5257 MEMB     40       POPC     C21      CL       0.900000       12.0110           0
      5258 MEMB     40       POPC     O22      OBL     -0.630000       15.9994           0
      5259 MEMB     40       POPC     C22      CTL2    -0.220000       12.0110           0
      5260 MEMB     40       POPC     H2R      HAL2     0.900000E-01   1.00800           0
      5261 MEMB     40       POPC     H2S      HAL2     0.900000E-01   1.00800           0
      5262 MEMB     40       POPC     C3       CTL2     0.800000E-01   12.0110           0
      5263 MEMB     40       POPC     HX       HAL2     0.900000E-01   1.00800           0
      5264 MEMB     40       POPC     HY       HAL2     0.900000E-01   1.00800           0
      5265 MEMB     40       POPC     O31      OSL     -0.490000       15.9994           0
      5266 MEMB     40       POPC     C31      CL       0.900000       12.0110           0
      5267 MEMB     40       POPC     O32      OBL     -0.630000       15.9994           0
      5268 MEMB     40       POPC     C32      CTL2    -0.220000       12.0110           0
      5269 MEMB     40       POPC     H2X      HAL2     0.900000E-01   1.00800           0
      5270 MEMB     40       POPC     H2Y      HAL2     0.900000E-01   1.00800           0
      5271 MEMB     40       POPC     C23      CTL2    -0.180000       12.0110           0
      5272 MEMB     40       POPC     H3R      HAL2     0.900000E-01   1.00800           0
      5273 MEMB     40       POPC     H3S      HAL2     0.900000E-01   1.00800           0
      5274 MEMB     40       POPC     C24      CTL2    -0.180000       12.0110           0
      5275 MEMB     40       POPC     H4R      HAL2     0.900000E-01   1.00800           0
      5276 MEMB     40       POPC     H4S      HAL2     0.900000E-01   1.00800           0
      5277 MEMB     40       POPC     C25      CTL2    -0.180000       12.0110           0
      5278 MEMB     40       POPC     H5R      HAL2     0.900000E-01   1.00800           0
      5279 MEMB     40       POPC     H5S      HAL2     0.900000E-01   1.00800           0
      5280 MEMB     40       POPC     C26      CTL2    -0.180000       12.0110           0
      5281 MEMB     40       POPC     H6R      HAL2     0.900000E-01   1.00800           0
      5282 MEMB     40       POPC     H6S      HAL2     0.900000E-01   1.00800           0
      5283 MEMB     40       POPC     C27      CTL2    -0.180000       12.0110           0
      5284 MEMB     40       POPC     H7R      HAL2     0.900000E-01   1.00800           0
      5285 MEMB     40       POPC     H7S      HAL2     0.900000E-01   1.00800           0
      5286 MEMB     40       POPC     C28      CTL2    -0.180000       12.0110           0
      5287 MEMB     40       POPC     H8R      HAL2     0.900000E-01   1.00800           0
      5288 MEMB     40       POPC     H8S      HAL2     0.900000E-01   1.00800           0
      5289 MEMB     40       POPC     C29      CEL1    -0.150000       12.0110           0
      5290 MEMB     40       POPC     H91      HEL1     0.150000       1.00800           0
      5291 MEMB     40       POPC     C210     CEL1    -0.150000       12.0110           0
      5292 MEMB     40       POPC     H101     HEL1     0.150000       1.00800           0
      5293 MEMB     40       POPC     C211     CTL2    -0.180000       12.0110           0
      5294 MEMB     40       POPC     H11R     HAL2     0.900000E-01   1.00800           0
      5295 MEMB     40       POPC     H11S     HAL2     0.900000E-01   1.00800           0
      5296 MEMB     40       POPC     C212     CTL2    -0.180000       12.0110           0
      5297 MEMB     40       POPC     H12R     HAL2     0.900000E-01   1.00800           0
      5298 MEMB     40       POPC     H12S     HAL2     0.900000E-01   1.00800           0
      5299 MEMB     40       POPC     C213     CTL2    -0.180000       12.0110           0
      5300 MEMB     40       POPC     H13R     HAL2     0.900000E-01   1.00800           0
      5301 MEMB     40       POPC     H13S     HAL2     0.900000E-01   1.00800           0
      5302 MEMB     40       POPC     C214     CTL2    -0.180000       12.0110           0
      5303 MEMB     40       POPC     H14R     HAL2     0.900000E-01   1.00800           0
      5304 MEMB     40       POPC     H14S     HAL2     0.900000E-01   1.00800           0
      5305 MEMB     40       POPC     C215     CTL2    -0.180000       12.0110           0
      5306 MEMB     40       POPC     H15R     HAL2     0.900000E-01   1.00800           0
      5307 MEMB     40       POPC     H15S     HAL2     0.900000E-01   1.00800           0
      5308 MEMB     40       POPC     C216     CTL2    -0.180000       12.0110           0
      5309 MEMB     40       POPC     H16R     HAL2     0.900000E-01   1.00800           0
      5310 MEMB     40       POPC     H16S     HAL2     0.900000E-01   1.00800           0
      5311 MEMB     40       POPC     C217     CTL2    -0.180000       12.0110           0
      5312 MEMB     40       POPC     H17R     HAL2     0.900000E-01   1.00800           0
      5313 MEMB     40       POPC     H17S     HAL2     0.900000E-01   1.00800           0
      5314 MEMB     40       POPC     C218     CTL3    -0.270000       12.0110           0
      5315 MEMB     40       POPC     H18R     HAL3     0.900000E-01   1.00800           0
      5316 MEMB     40       POPC     H18S     HAL3     0.900000E-01   1.00800           0
      5317 MEMB     40       POPC     H18T     HAL3     0.900000E-01   1.00800           0
      5318 MEMB     40       POPC     C33      CTL2    -0.180000       12.0110           0
      5319 MEMB     40       POPC     H3X      HAL2     0.900000E-01   1.00800           0
      5320 MEMB     40       POPC     H3Y      HAL2     0.900000E-01   1.00800           0
      5321 MEMB     40       POPC     C34      CTL2    -0.180000       12.0110           0
      5322 MEMB     40       POPC     H4X      HAL2     0.900000E-01   1.00800           0
      5323 MEMB     40       POPC     H4Y      HAL2     0.900000E-01   1.00800           0
      5324 MEMB     40       POPC     C35      CTL2    -0.180000       12.0110           0
      5325 MEMB     40       POPC     H5X      HAL2     0.900000E-01   1.00800           0
      5326 MEMB     40       POPC     H5Y      HAL2     0.900000E-01   1.00800           0
      5327 MEMB     40       POPC     C36      CTL2    -0.180000       12.0110           0
      5328 MEMB     40       POPC     H6X      HAL2     0.900000E-01   1.00800           0
      5329 MEMB     40       POPC     H6Y      HAL2     0.900000E-01   1.00800           0
      5330 MEMB     40       POPC     C37      CTL2    -0.180000       12.0110           0
      5331 MEMB     40       POPC     H7X      HAL2     0.900000E-01   1.00800           0
      5332 MEMB     40       POPC     H7Y      HAL2     0.900000E-01   1.00800           0
      5333 MEMB     40       POPC     C38      CTL2    -0.180000       12.0110           0
      5334 MEMB     40       POPC     H8X      HAL2     0.900000E-01   1.00800           0
      5335 MEMB     40       POPC     H8Y      HAL2     0.900000E-01   1.00800           0
      5336 MEMB     40       POPC     C39      CTL2    -0.180000       12.0110           0
      5337 MEMB     40       POPC     H9X      HAL2     0.900000E-01   1.00800           0
      5338 MEMB     40       POPC     H9Y      HAL2     0.900000E-01   1.00800           0
      5339 MEMB     40       POPC     C310     CTL2    -0.180000       12.0110           0
      5340 MEMB     40       POPC     H10X     HAL2     0.900000E-01   1.00800           0
      5341 MEMB     40       POPC     H10Y     HAL2     0.900000E-01   1.00800           0
      5342 MEMB     40       POPC     C311     CTL2    -0.180000       12.0110           0
      5343 MEMB     40       POPC     H11X     HAL2     0.900000E-01   1.00800           0
      5344 MEMB     40       POPC     H11Y     HAL2     0.900000E-01   1.00800           0
      5345 MEMB     40       POPC     C312     CTL2    -0.180000       12.0110           0
      5346 MEMB     40       POPC     H12X     HAL2     0.900000E-01   1.00800           0
      5347 MEMB     40       POPC     H12Y     HAL2     0.900000E-01   1.00800           0
      5348 MEMB     40       POPC     C313     CTL2    -0.180000       12.0110           0
      5349 MEMB     40       POPC     H13X     HAL2     0.900000E-01   1.00800           0
      5350 MEMB     40       POPC     H13Y     HAL2     0.900000E-01   1.00800           0
      5351 MEMB     40       POPC     C314     CTL2    -0.180000       12.0110           0
      5352 MEMB     40       POPC     H14X     HAL2     0.900000E-01   1.00800           0
      5353 MEMB     40       POPC     H14Y     HAL2     0.900000E-01   1.00800           0
      5354 MEMB     40       POPC     C315     CTL2    -0.180000       12.0110           0
      5355 MEMB     40       POPC     H15X     HAL2     0.900000E-01   1.00800           0
      5356 MEMB     40       POPC     H15Y     HAL2     0.900000E-01   1.00800           0
      5357 MEMB     40       POPC     C316     CTL3    -0.270000       12.0110           0
      5358 MEMB     40       POPC     H16X     HAL3     0.900000E-01   1.00800           0
      5359 MEMB     40       POPC     H16Y     HAL3     0.900000E-01   1.00800           0
      5360 MEMB     40       POPC     H16Z     HAL3     0.900000E-01   1.00800           0
      5361 MEMB     41       POPC     N        NTL     -0.600000       14.0070           0
      5362 MEMB     41       POPC     C12      CTL2    -0.100000       12.0110           0
      5363 MEMB     41       POPC     H12A     HL       0.250000       1.00800           0
      5364 MEMB     41       POPC     H12B     HL       0.250000       1.00800           0
      5365 MEMB     41       POPC     C13      CTL5    -0.350000       12.0110           0
      5366 MEMB     41       POPC     H13A     HL       0.250000       1.00800           0
      5367 MEMB     41       POPC     H13B     HL       0.250000       1.00800           0
      5368 MEMB     41       POPC     H13C     HL       0.250000       1.00800           0
      5369 MEMB     41       POPC     C14      CTL5    -0.350000       12.0110           0
      5370 MEMB     41       POPC     H14A     HL       0.250000       1.00800           0
      5371 MEMB     41       POPC     H14B     HL       0.250000       1.00800           0
      5372 MEMB     41       POPC     H14C     HL       0.250000       1.00800           0
      5373 MEMB     41       POPC     C15      CTL5    -0.350000       12.0110           0
      5374 MEMB     41       POPC     H15A     HL       0.250000       1.00800           0
      5375 MEMB     41       POPC     H15B     HL       0.250000       1.00800           0
      5376 MEMB     41       POPC     H15C     HL       0.250000       1.00800           0
      5377 MEMB     41       POPC     C11      CTL2    -0.800000E-01   12.0110           0
      5378 MEMB     41       POPC     H11A     HAL2     0.900000E-01   1.00800           0
      5379 MEMB     41       POPC     H11B     HAL2     0.900000E-01   1.00800           0
      5380 MEMB     41       POPC     P        PL        1.50000       30.9740           0
      5381 MEMB     41       POPC     O13      O2L     -0.780000       15.9994           0
      5382 MEMB     41       POPC     O14      O2L     -0.780000       15.9994           0
      5383 MEMB     41       POPC     O12      OSLP    -0.570000       15.9994           0
      5384 MEMB     41       POPC     O11      OSLP    -0.570000       15.9994           0
      5385 MEMB     41       POPC     C1       CTL2    -0.800000E-01   12.0110           0
      5386 MEMB     41       POPC     HA       HAL2     0.900000E-01   1.00800           0
      5387 MEMB     41       POPC     HB       HAL2     0.900000E-01   1.00800           0
      5388 MEMB     41       POPC     C2       CTL1     0.170000       12.0110           0
      5389 MEMB     41       POPC     HS       HAL1     0.900000E-01   1.00800           0
      5390 MEMB     41       POPC     O21      OSL     -0.490000       15.9994           0
      5391 MEMB     41       POPC     C21      CL       0.900000       12.0110           0
      5392 MEMB     41       POPC     O22      OBL     -0.630000       15.9994           0
      5393 MEMB     41       POPC     C22      CTL2    -0.220000       12.0110           0
      5394 MEMB     41       POPC     H2R      HAL2     0.900000E-01   1.00800           0
      5395 MEMB     41       POPC     H2S      HAL2     0.900000E-01   1.00800           0
      5396 MEMB     41       POPC     C3       CTL2     0.800000E-01   12.0110           0
      5397 MEMB     41       POPC     HX       HAL2     0.900000E-01   1.00800           0
      5398 MEMB     41       POPC     HY       HAL2     0.900000E-01   1.00800           0
      5399 MEMB     41       POPC     O31      OSL     -0.490000       15.9994           0
      5400 MEMB     41       POPC     C31      CL       0.900000       12.0110           0
      5401 MEMB     41       POPC     O32      OBL     -0.630000       15.9994           0
      5402 MEMB     41       POPC     C32      CTL2    -0.220000       12.0110           0
      5403 MEMB     41       POPC     H2X      HAL2     0.900000E-01   1.00800           0
      5404 MEMB     41       POPC     H2Y      HAL2     0.900000E-01   1.00800           0
      5405 MEMB     41       POPC     C23      CTL2    -0.180000       12.0110           0
      5406 MEMB     41       POPC     H3R      HAL2     0.900000E-01   1.00800           0
      5407 MEMB     41       POPC     H3S      HAL2     0.900000E-01   1.00800           0
      5408 MEMB     41       POPC     C24      CTL2    -0.180000       12.0110           0
      5409 MEMB     41       POPC     H4R      HAL2     0.900000E-01   1.00800           0
      5410 MEMB     41       POPC     H4S      HAL2     0.900000E-01   1.00800           0
      5411 MEMB     41       POPC     C25      CTL2    -0.180000       12.0110           0
      5412 MEMB     41       POPC     H5R      HAL2     0.900000E-01   1.00800           0
      5413 MEMB     41       POPC     H5S      HAL2     0.900000E-01   1.00800           0
      5414 MEMB     41       POPC     C26      CTL2    -0.180000       12.0110           0
      5415 MEMB     41       POPC     H6R      HAL2     0.900000E-01   1.00800           0
      5416 MEMB     41       POPC     H6S      HAL2     0.900000E-01   1.00800           0
      5417 MEMB     41       POPC     C27      CTL2    -0.180000       12.0110           0
      5418 MEMB     41       POPC     H7R      HAL2     0.900000E-01   1.00800           0
      5419 MEMB     41       POPC     H7S      HAL2     0.900000E-01   1.00800           0
      5420 MEMB     41       POPC     C28      CTL2    -0.180000       12.0110           0
      5421 MEMB     41       POPC     H8R      HAL2     0.900000E-01   1.00800           0
      5422 MEMB     41       POPC     H8S      HAL2     0.900000E-01   1.00800           0
      5423 MEMB     41       POPC     C29      CEL1    -0.150000       12.0110           0
      5424 MEMB     41       POPC     H91      HEL1     0.150000       1.00800           0
      5425 MEMB     41       POPC     C210     CEL1    -0.150000       12.0110           0
      5426 MEMB     41       POPC     H101     HEL1     0.150000       1.00800           0
      5427 MEMB     41       POPC     C211     CTL2    -0.180000       12.0110           0
      5428 MEMB     41       POPC     H11R     HAL2     0.900000E-01   1.00800           0
      5429 MEMB     41       POPC     H11S     HAL2     0.900000E-01   1.00800           0
      5430 MEMB     41       POPC     C212     CTL2    -0.180000       12.0110           0
      5431 MEMB     41       POPC     H12R     HAL2     0.900000E-01   1.00800           0
      5432 MEMB     41       POPC     H12S     HAL2     0.900000E-01   1.00800           0
      5433 MEMB     41       POPC     C213     CTL2    -0.180000       12.0110           0
      5434 MEMB     41       POPC     H13R     HAL2     0.900000E-01   1.00800           0
      5435 MEMB     41       POPC     H13S     HAL2     0.900000E-01   1.00800           0
      5436 MEMB     41       POPC     C214     CTL2    -0.180000       12.0110           0
      5437 MEMB     41       POPC     H14R     HAL2     0.900000E-01   1.00800           0
      5438 MEMB     41       POPC     H14S     HAL2     0.900000E-01   1.00800           0
      5439 MEMB     41       POPC     C215     CTL2    -0.180000       12.0110           0
      5440 MEMB     41       POPC     H15R     HAL2     0.900000E-01   1.00800           0
      5441 MEMB     41       POPC     H15S     HAL2     0.900000E-01   1.00800           0
      5442 MEMB     41       POPC     C216     CTL2    -0.180000       12.0110           0
      5443 MEMB     41       POPC     H16R     HAL2     0.900000E-01   1.00800           0
      5444 MEMB     41       POPC     H16S     HAL2     0.900000E-01   1.00800           0
      5445 MEMB     41       POPC     C217     CTL2    -0.180000       12.0110           0
      5446 MEMB     41       POPC     H17R     HAL2     0.900000E-01   1.00800           0
      5447 MEMB     41       POPC     H17S     HAL2     0.900000E-01   1.00800           0
      5448 MEMB     41       POPC     C218     CTL3    -0.270000       12.0110           0
      5449 MEMB     41       POPC     H18R     HAL3     0.900000E-01   1.00800           0
      5450 MEMB     41       POPC     H18S     HAL3     0.900000E-01   1.00800           0
      5451 MEMB     41       POPC     H18T     HAL3     0.900000E-01   1.00800           0
      5452 MEMB     41       POPC     C33      CTL2    -0.180000       12.0110           0
      5453 MEMB     41       POPC     H3X      HAL2     0.900000E-01   1.00800           0
      5454 MEMB     41       POPC     H3Y      HAL2     0.900000E-01   1.00800           0
      5455 MEMB     41       POPC     C34      CTL2    -0.180000       12.0110           0
      5456 MEMB     41       POPC     H4X      HAL2     0.900000E-01   1.00800           0
      5457 MEMB     41       POPC     H4Y      HAL2     0.900000E-01   1.00800           0
      5458 MEMB     41       POPC     C35      CTL2    -0.180000       12.0110           0
      5459 MEMB     41       POPC     H5X      HAL2     0.900000E-01   1.00800           0
      5460 MEMB     41       POPC     H5Y      HAL2     0.900000E-01   1.00800           0
      5461 MEMB     41       POPC     C36      CTL2    -0.180000       12.0110           0
      5462 MEMB     41       POPC     H6X      HAL2     0.900000E-01   1.00800           0
      5463 MEMB     41       POPC     H6Y      HAL2     0.900000E-01   1.00800           0
      5464 MEMB     41       POPC     C37      CTL2    -0.180000       12.0110           0
      5465 MEMB     41       POPC     H7X      HAL2     0.900000E-01   1.00800           0
      5466 MEMB     41       POPC     H7Y      HAL2     0.900000E-01   1.00800           0
      5467 MEMB     41       POPC     C38      CTL2    -0.180000       12.0110           0
      5468 MEMB     41       POPC     H8X      HAL2     0.900000E-01   1.00800           0
      5469 MEMB     41       POPC     H8Y      HAL2     0.900000E-01   1.00800           0
      5470 MEMB     41       POPC     C39      CTL2    -0.180000       12.0110           0
      5471 MEMB     41       POPC     H9X      HAL2     0.900000E-01   1.00800           0
      5472 MEMB     41       POPC     H9Y      HAL2     0.900000E-01   1.00800           0
      5473 MEMB     41       POPC     C310     CTL2    -0.180000       12.0110           0
      5474 MEMB     41       POPC     H10X     HAL2     0.900000E-01   1.00800           0
      5475 MEMB     41       POPC     H10Y     HAL2     0.900000E-01   1.00800           0
      5476 MEMB     41       POPC     C311     CTL2    -0.180000       12.0110           0
      5477 MEMB     41       POPC     H11X     HAL2     0.900000E-01   1.00800           0
      5478 MEMB     41       POPC     H11Y     HAL2     0.900000E-01   1.00800           0
      5479 MEMB     41       POPC     C312     CTL2    -0.180000       12.0110           0
      5480 MEMB     41       POPC     H12X     HAL2     0.900000E-01   1.00800           0
      5481 MEMB     41       POPC     H12Y     HAL2     0.900000E-01   1.00800           0
      5482 MEMB     41       POPC     C313     CTL2    -0.180000       12.0110           0
      5483 MEMB     41       POPC     H13X     HAL2     0.900000E-01   1.00800           0
      5484 MEMB     41       POPC     H13Y     HAL2     0.900000E-01   1.00800           0
      5485 MEMB     41       POPC     C314     CTL2    -0.180000       12.0110           0
      5486 MEMB     41       POPC     H14X     HAL2     0.900000E-01   1.00800           0
      5487 MEMB     41       POPC     H14Y     HAL2     0.900000E-01   1.00800           0
      5488 MEMB     41       POPC     C315     CTL2    -0.180000       12.0110           0
      5489 MEMB     41       POPC     H15X     HAL2     0.900000E-01   1.00800           0
      5490 MEMB     41       POPC     H15Y     HAL2     0.900000E-01   1.00800           0
      5491 MEMB     41       POPC     C316     CTL3    -0.270000       12.0110           0
      5492 MEMB     41       POPC     H16X     HAL3     0.900000E-01   1.00800           0
      5493 MEMB     41       POPC     H16Y     HAL3     0.900000E-01   1.00800           0
      5494 MEMB     41       POPC     H16Z     HAL3     0.900000E-01   1.00800           0
      5495 MEMB     42       POPC     N        NTL     -0.600000       14.0070           0
      5496 MEMB     42       POPC     C12      CTL2    -0.100000       12.0110           0
      5497 MEMB     42       POPC     H12A     HL       0.250000       1.00800           0
      5498 MEMB     42       POPC     H12B     HL       0.250000       1.00800           0
      5499 MEMB     42       POPC     C13      CTL5    -0.350000       12.0110           0
      5500 MEMB     42       POPC     H13A     HL       0.250000       1.00800           0
      5501 MEMB     42       POPC     H13B     HL       0.250000       1.00800           0
      5502 MEMB     42       POPC     H13C     HL       0.250000       1.00800           0
      5503 MEMB     42       POPC     C14      CTL5    -0.350000       12.0110           0
      5504 MEMB     42       POPC     H14A     HL       0.250000       1.00800           0
      5505 MEMB     42       POPC     H14B     HL       0.250000       1.00800           0
      5506 MEMB     42       POPC     H14C     HL       0.250000       1.00800           0
      5507 MEMB     42       POPC     C15      CTL5    -0.350000       12.0110           0
      5508 MEMB     42       POPC     H15A     HL       0.250000       1.00800           0
      5509 MEMB     42       POPC     H15B     HL       0.250000       1.00800           0
      5510 MEMB     42       POPC     H15C     HL       0.250000       1.00800           0
      5511 MEMB     42       POPC     C11      CTL2    -0.800000E-01   12.0110           0
      5512 MEMB     42       POPC     H11A     HAL2     0.900000E-01   1.00800           0
      5513 MEMB     42       POPC     H11B     HAL2     0.900000E-01   1.00800           0
      5514 MEMB     42       POPC     P        PL        1.50000       30.9740           0
      5515 MEMB     42       POPC     O13      O2L     -0.780000       15.9994           0
      5516 MEMB     42       POPC     O14      O2L     -0.780000       15.9994           0
      5517 MEMB     42       POPC     O12      OSLP    -0.570000       15.9994           0
      5518 MEMB     42       POPC     O11      OSLP    -0.570000       15.9994           0
      5519 MEMB     42       POPC     C1       CTL2    -0.800000E-01   12.0110           0
      5520 MEMB     42       POPC     HA       HAL2     0.900000E-01   1.00800           0
      5521 MEMB     42       POPC     HB       HAL2     0.900000E-01   1.00800           0
      5522 MEMB     42       POPC     C2       CTL1     0.170000       12.0110           0
      5523 MEMB     42       POPC     HS       HAL1     0.900000E-01   1.00800           0
      5524 MEMB     42       POPC     O21      OSL     -0.490000       15.9994           0
      5525 MEMB     42       POPC     C21      CL       0.900000       12.0110           0
      5526 MEMB     42       POPC     O22      OBL     -0.630000       15.9994           0
      5527 MEMB     42       POPC     C22      CTL2    -0.220000       12.0110           0
      5528 MEMB     42       POPC     H2R      HAL2     0.900000E-01   1.00800           0
      5529 MEMB     42       POPC     H2S      HAL2     0.900000E-01   1.00800           0
      5530 MEMB     42       POPC     C3       CTL2     0.800000E-01   12.0110           0
      5531 MEMB     42       POPC     HX       HAL2     0.900000E-01   1.00800           0
      5532 MEMB     42       POPC     HY       HAL2     0.900000E-01   1.00800           0
      5533 MEMB     42       POPC     O31      OSL     -0.490000       15.9994           0
      5534 MEMB     42       POPC     C31      CL       0.900000       12.0110           0
      5535 MEMB     42       POPC     O32      OBL     -0.630000       15.9994           0
      5536 MEMB     42       POPC     C32      CTL2    -0.220000       12.0110           0
      5537 MEMB     42       POPC     H2X      HAL2     0.900000E-01   1.00800           0
      5538 MEMB     42       POPC     H2Y      HAL2     0.900000E-01   1.00800           0
      5539 MEMB     42       POPC     C23      CTL2    -0.180000       12.0110           0
      5540 MEMB     42       POPC     H3R      HAL2     0.900000E-01   1.00800           0
      5541 MEMB     42       POPC     H3S      HAL2     0.900000E-01   1.00800           0
      5542 MEMB     42       POPC     C24      CTL2    -0.180000       12.0110           0
      5543 MEMB     42       POPC     H4R      HAL2     0.900000E-01   1.00800           0
      5544 MEMB     42       POPC     H4S      HAL2     0.900000E-01   1.00800           0
      5545 MEMB     42       POPC     C25      CTL2    -0.180000       12.0110           0
      5546 MEMB     42       POPC     H5R      HAL2     0.900000E-01   1.00800           0
      5547 MEMB     42       POPC     H5S      HAL2     0.900000E-01   1.00800           0
      5548 MEMB     42       POPC     C26      CTL2    -0.180000       12.0110           0
      5549 MEMB     42       POPC     H6R      HAL2     0.900000E-01   1.00800           0
      5550 MEMB     42       POPC     H6S      HAL2     0.900000E-01   1.00800           0
      5551 MEMB     42       POPC     C27      CTL2    -0.180000       12.0110           0
      5552 MEMB     42       POPC     H7R      HAL2     0.900000E-01   1.00800           0
      5553 MEMB     42       POPC     H7S      HAL2     0.900000E-01   1.00800           0
      5554 MEMB     42       POPC     C28      CTL2    -0.180000       12.0110           0
      5555 MEMB     42       POPC     H8R      HAL2     0.900000E-01   1.00800           0
      5556 MEMB     42       POPC     H8S      HAL2     0.900000E-01   1.00800           0
      5557 MEMB     42       POPC     C29      CEL1    -0.150000       12.0110           0
      5558 MEMB     42       POPC     H91      HEL1     0.150000       1.00800           0
      5559 MEMB     42       POPC     C210     CEL1    -0.150000       12.0110           0
      5560 MEMB     42       POPC     H101     HEL1     0.150000       1.00800           0
      5561 MEMB     42       POPC     C211     CTL2    -0.180000       12.0110           0
      5562 MEMB     42       POPC     H11R     HAL2     0.900000E-01   1.00800           0
      5563 MEMB     42       POPC     H11S     HAL2     0.900000E-01   1.00800           0
      5564 MEMB     42       POPC     C212     CTL2    -0.180000       12.0110           0
      5565 MEMB     42       POPC     H12R     HAL2     0.900000E-01   1.00800           0
      5566 MEMB     42       POPC     H12S     HAL2     0.900000E-01   1.00800           0
      5567 MEMB     42       POPC     C213     CTL2    -0.180000       12.0110           0
      5568 MEMB     42       POPC     H13R     HAL2     0.900000E-01   1.00800           0
      5569 MEMB     42       POPC     H13S     HAL2     0.900000E-01   1.00800           0
      5570 MEMB     42       POPC     C214     CTL2    -0.180000       12.0110           0
      5571 MEMB     42       POPC     H14R     HAL2     0.900000E-01   1.00800           0
      5572 MEMB     42       POPC     H14S     HAL2     0.900000E-01   1.00800           0
      5573 MEMB     42       POPC     C215     CTL2    -0.180000       12.0110           0
      5574 MEMB     42       POPC     H15R     HAL2     0.900000E-01   1.00800           0
      5575 MEMB     42       POPC     H15S     HAL2     0.900000E-01   1.00800           0
      5576 MEMB     42       POPC     C216     CTL2    -0.180000       12.0110           0
      5577 MEMB     42       POPC     H16R     HAL2     0.900000E-01   1.00800           0
      5578 MEMB     42       POPC     H16S     HAL2     0.900000E-01   1.00800           0
      5579 MEMB     42       POPC     C217     CTL2    -0.180000       12.0110           0
      5580 MEMB     42       POPC     H17R     HAL2     0.900000E-01   1.00800           0
      5581 MEMB     42       POPC     H17S     HAL2     0.900000E-01   1.00800           0
      5582 MEMB     42       POPC     C218     CTL3    -0.270000       12.0110           0
      5583 MEMB     42       POPC     H18R     HAL3     0.900000E-01   1.00800           0
      5584 MEMB     42       POPC     H18S     HAL3     0.900000E-01   1.00800           0
      5585 MEMB     42       POPC     H18T     HAL3     0.900000E-01   1.00800           0
      5586 MEMB     42       POPC     C33      CTL2    -0.180000       12.0110           0
      5587 MEMB     42       POPC     H3X      HAL2     0.900000E-01   1.00800           0
      5588 MEMB     42       POPC     H3Y      HAL2     0.900000E-01   1.00800           0
      5589 MEMB     42       POPC     C34      CTL2    -0.180000       12.0110           0
      5590 MEMB     42       POPC     H4X      HAL2     0.900000E-01   1.00800           0
      5591 MEMB     42       POPC     H4Y      HAL2     0.900000E-01   1.00800           0
      5592 MEMB     42       POPC     C35      CTL2    -0.180000       12.0110           0
      5593 MEMB     42       POPC     H5X      HAL2     0.900000E-01   1.00800           0
      5594 MEMB     42       POPC     H5Y      HAL2     0.900000E-01   1.00800           0
      5595 MEMB     42       POPC     C36      CTL2    -0.180000       12.0110           0
      5596 MEMB     42       POPC     H6X      HAL2     0.900000E-01   1.00800           0
      5597 MEMB     42       POPC     H6Y      HAL2     0.900000E-01   1.00800           0
      5598 MEMB     42       POPC     C37      CTL2    -0.180000       12.0110           0
      5599 MEMB     42       POPC     H7X      HAL2     0.900000E-01   1.00800           0
      5600 MEMB     42       POPC     H7Y      HAL2     0.900000E-01   1.00800           0
      5601 MEMB     42       POPC     C38      CTL2    -0.180000       12.0110           0
      5602 MEMB     42       POPC     H8X      HAL2     0.900000E-01   1.00800           0
      5603 MEMB     42       POPC     H8Y      HAL2     0.900000E-01   1.00800           0
      5604 MEMB     42       POPC     C39      CTL2    -0.180000       12.0110           0
      5605 MEMB     42       POPC     H9X      HAL2     0.900000E-01   1.00800           0
      5606 MEMB     42       POPC     H9Y      HAL2     0.900000E-01   1.00800           0
      5607 MEMB     42       POPC     C310     CTL2    -0.180000       12.0110           0
      5608 MEMB     42       POPC     H10X     HAL2     0.900000E-01   1.00800           0
      5609 MEMB     42       POPC     H10Y     HAL2     0.900000E-01   1.00800           0
      5610 MEMB     42       POPC     C311     CTL2    -0.180000       12.0110           0
      5611 MEMB     42       POPC     H11X     HAL2     0.900000E-01   1.00800           0
      5612 MEMB     42       POPC     H11Y     HAL2     0.900000E-01   1.00800           0
      5613 MEMB     42       POPC     C312     CTL2    -0.180000       12.0110           0
      5614 MEMB     42       POPC     H12X     HAL2     0.900000E-01   1.00800           0
      5615 MEMB     42       POPC     H12Y     HAL2     0.900000E-01   1.00800           0
      5616 MEMB     42       POPC     C313     CTL2    -0.180000       12.0110           0
      5617 MEMB     42       POPC     H13X     HAL2     0.900000E-01   1.00800           0
      5618 MEMB     42       POPC     H13Y     HAL2     0.900000E-01   1.00800           0
      5619 MEMB     42       POPC     C314     CTL2    -0.180000       12.0110           0
      5620 MEMB     42       POPC     H14X     HAL2     0.900000E-01   1.00800           0
      5621 MEMB     42       POPC     H14Y     HAL2     0.900000E-01   1.00800           0
      5622 MEMB     42       POPC     C315     CTL2    -0.180000       12.0110           0
      5623 MEMB     42       POPC     H15X     HAL2     0.900000E-01   1.00800           0
      5624 MEMB     42       POPC     H15Y     HAL2     0.900000E-01   1.00800           0
      5625 MEMB     42       POPC     C316     CTL3    -0.270000       12.0110           0
      5626 MEMB     42       POPC     H16X     HAL3     0.900000E-01   1.00800           0
      5627 MEMB     42       POPC     H16Y     HAL3     0.900000E-01   1.00800           0
      5628 MEMB     42       POPC     H16Z     HAL3     0.900000E-01   1.00800           0
      5629 MEMB     43       POPC     N        NTL     -0.600000       14.0070           0
      5630 MEMB     43       POPC     C12      CTL2    -0.100000       12.0110           0
      5631 MEMB     43       POPC     H12A     HL       0.250000       1.00800           0
      5632 MEMB     43       POPC     H12B     HL       0.250000       1.00800           0
      5633 MEMB     43       POPC     C13      CTL5    -0.350000       12.0110           0
      5634 MEMB     43       POPC     H13A     HL       0.250000       1.00800           0
      5635 MEMB     43       POPC     H13B     HL       0.250000       1.00800           0
      5636 MEMB     43       POPC     H13C     HL       0.250000       1.00800           0
      5637 MEMB     43       POPC     C14      CTL5    -0.350000       12.0110           0
      5638 MEMB     43       POPC     H14A     HL       0.250000       1.00800           0
      5639 MEMB     43       POPC     H14B     HL       0.250000       1.00800           0
      5640 MEMB     43       POPC     H14C     HL       0.250000       1.00800           0
      5641 MEMB     43       POPC     C15      CTL5    -0.350000       12.0110           0
      5642 MEMB     43       POPC     H15A     HL       0.250000       1.00800           0
      5643 MEMB     43       POPC     H15B     HL       0.250000       1.00800           0
      5644 MEMB     43       POPC     H15C     HL       0.250000       1.00800           0
      5645 MEMB     43       POPC     C11      CTL2    -0.800000E-01   12.0110           0
      5646 MEMB     43       POPC     H11A     HAL2     0.900000E-01   1.00800           0
      5647 MEMB     43       POPC     H11B     HAL2     0.900000E-01   1.00800           0
      5648 MEMB     43       POPC     P        PL        1.50000       30.9740           0
      5649 MEMB     43       POPC     O13      O2L     -0.780000       15.9994           0
      5650 MEMB     43       POPC     O14      O2L     -0.780000       15.9994           0
      5651 MEMB     43       POPC     O12      OSLP    -0.570000       15.9994           0
      5652 MEMB     43       POPC     O11      OSLP    -0.570000       15.9994           0
      5653 MEMB     43       POPC     C1       CTL2    -0.800000E-01   12.0110           0
      5654 MEMB     43       POPC     HA       HAL2     0.900000E-01   1.00800           0
      5655 MEMB     43       POPC     HB       HAL2     0.900000E-01   1.00800           0
      5656 MEMB     43       POPC     C2       CTL1     0.170000       12.0110           0
      5657 MEMB     43       POPC     HS       HAL1     0.900000E-01   1.00800           0
      5658 MEMB     43       POPC     O21      OSL     -0.490000       15.9994           0
      5659 MEMB     43       POPC     C21      CL       0.900000       12.0110           0
      5660 MEMB     43       POPC     O22      OBL     -0.630000       15.9994           0
      5661 MEMB     43       POPC     C22      CTL2    -0.220000       12.0110           0
      5662 MEMB     43       POPC     H2R      HAL2     0.900000E-01   1.00800           0
      5663 MEMB     43       POPC     H2S      HAL2     0.900000E-01   1.00800           0
      5664 MEMB     43       POPC     C3       CTL2     0.800000E-01   12.0110           0
      5665 MEMB     43       POPC     HX       HAL2     0.900000E-01   1.00800           0
      5666 MEMB     43       POPC     HY       HAL2     0.900000E-01   1.00800           0
      5667 MEMB     43       POPC     O31      OSL     -0.490000       15.9994           0
      5668 MEMB     43       POPC     C31      CL       0.900000       12.0110           0
      5669 MEMB     43       POPC     O32      OBL     -0.630000       15.9994           0
      5670 MEMB     43       POPC     C32      CTL2    -0.220000       12.0110           0
      5671 MEMB     43       POPC     H2X      HAL2     0.900000E-01   1.00800           0
      5672 MEMB     43       POPC     H2Y      HAL2     0.900000E-01   1.00800           0
      5673 MEMB     43       POPC     C23      CTL2    -0.180000       12.0110           0
      5674 MEMB     43       POPC     H3R      HAL2     0.900000E-01   1.00800           0
      5675 MEMB     43       POPC     H3S      HAL2     0.900000E-01   1.00800           0
      5676 MEMB     43       POPC     C24      CTL2    -0.180000       12.0110           0
      5677 MEMB     43       POPC     H4R      HAL2     0.900000E-01   1.00800           0
      5678 MEMB     43       POPC     H4S      HAL2     0.900000E-01   1.00800           0
      5679 MEMB     43       POPC     C25      CTL2    -0.180000       12.0110           0
      5680 MEMB     43       POPC     H5R      HAL2     0.900000E-01   1.00800           0
      5681 MEMB     43       POPC     H5S      HAL2     0.900000E-01   1.00800           0
      5682 MEMB     43       POPC     C26      CTL2    -0.180000       12.0110           0
      5683 MEMB     43       POPC     H6R      HAL2     0.900000E-01   1.00800           0
      5684 MEMB     43       POPC     H6S      HAL2     0.900000E-01   1.00800           0
      5685 MEMB     43       POPC     C27      CTL2    -0.180000       12.0110           0
      5686 MEMB     43       POPC     H7R      HAL2     0.900000E-01   1.00800           0
      5687 MEMB     43       POPC     H7S      HAL2     0.900000E-01   1.00800           0
      5688 MEMB     43       POPC     C28      CTL2    -0.180000       12.0110           0
      5689 MEMB     43       POPC     H8R      HAL2     0.900000E-01   1.00800           0
      5690 MEMB     43       POPC     H8S      HAL2     0.900000E-01   1.00800           0
      5691 MEMB     43       POPC     C29      CEL1    -0.150000       12.0110           0
      5692 MEMB     43       POPC     H91      HEL1     0.150000       1.00800           0
      5693 MEMB     43       POPC     C210     CEL1    -0.150000       12.0110           0
      5694 MEMB     43       POPC     H101     HEL1     0.150000       1.00800           0
      5695 MEMB     43       POPC     C211     CTL2    -0.180000       12.0110           0
      5696 MEMB     43       POPC     H11R     HAL2     0.900000E-01   1.00800           0
      5697 MEMB     43       POPC     H11S     HAL2     0.900000E-01   1.00800           0
      5698 MEMB     43       POPC     C212     CTL2    -0.180000       12.0110           0
      5699 MEMB     43       POPC     H12R     HAL2     0.900000E-01   1.00800           0
      5700 MEMB     43       POPC     H12S     HAL2     0.900000E-01   1.00800           0
      5701 MEMB     43       POPC     C213     CTL2    -0.180000       12.0110           0
      5702 MEMB     43       POPC     H13R     HAL2     0.900000E-01   1.00800           0
      5703 MEMB     43       POPC     H13S     HAL2     0.900000E-01   1.00800           0
      5704 MEMB     43       POPC     C214     CTL2    -0.180000       12.0110           0
      5705 MEMB     43       POPC     H14R     HAL2     0.900000E-01   1.00800           0
      5706 MEMB     43       POPC     H14S     HAL2     0.900000E-01   1.00800           0
      5707 MEMB     43       POPC     C215     CTL2    -0.180000       12.0110           0
      5708 MEMB     43       POPC     H15R     HAL2     0.900000E-01   1.00800           0
      5709 MEMB     43       POPC     H15S     HAL2     0.900000E-01   1.00800           0
      5710 MEMB     43       POPC     C216     CTL2    -0.180000       12.0110           0
      5711 MEMB     43       POPC     H16R     HAL2     0.900000E-01   1.00800           0
      5712 MEMB     43       POPC     H16S     HAL2     0.900000E-01   1.00800           0
      5713 MEMB     43       POPC     C217     CTL2    -0.180000       12.0110           0
      5714 MEMB     43       POPC     H17R     HAL2     0.900000E-01   1.00800           0
      5715 MEMB     43       POPC     H17S     HAL2     0.900000E-01   1.00800           0
      5716 MEMB     43       POPC     C218     CTL3    -0.270000       12.0110           0
      5717 MEMB     43       POPC     H18R     HAL3     0.900000E-01   1.00800           0
      5718 MEMB     43       POPC     H18S     HAL3     0.900000E-01   1.00800           0
      5719 MEMB     43       POPC     H18T     HAL3     0.900000E-01   1.00800           0
      5720 MEMB     43       POPC     C33      CTL2    -0.180000       12.0110           0
      5721 MEMB     43       POPC     H3X      HAL2     0.900000E-01   1.00800           0
      5722 MEMB     43       POPC     H3Y      HAL2     0.900000E-01   1.00800           0
      5723 MEMB     43       POPC     C34      CTL2    -0.180000       12.0110           0
      5724 MEMB     43       POPC     H4X      HAL2     0.900000E-01   1.00800           0
      5725 MEMB     43       POPC     H4Y      HAL2     0.900000E-01   1.00800           0
      5726 MEMB     43       POPC     C35      CTL2    -0.180000       12.0110           0
      5727 MEMB     43       POPC     H5X      HAL2     0.900000E-01   1.00800           0
      5728 MEMB     43       POPC     H5Y      HAL2     0.900000E-01   1.00800           0
      5729 MEMB     43       POPC     C36      CTL2    -0.180000       12.0110           0
      5730 MEMB     43       POPC     H6X      HAL2     0.900000E-01   1.00800           0
      5731 MEMB     43       POPC     H6Y      HAL2     0.900000E-01   1.00800           0
      5732 MEMB     43       POPC     C37      CTL2    -0.180000       12.0110           0
      5733 MEMB     43       POPC     H7X      HAL2     0.900000E-01   1.00800           0
      5734 MEMB     43       POPC     H7Y      HAL2     0.900000E-01   1.00800           0
      5735 MEMB     43       POPC     C38      CTL2    -0.180000       12.0110           0
      5736 MEMB     43       POPC     H8X      HAL2     0.900000E-01   1.00800           0
      5737 MEMB     43       POPC     H8Y      HAL2     0.900000E-01   1.00800           0
      5738 MEMB     43       POPC     C39      CTL2    -0.180000       12.0110           0
      5739 MEMB     43       POPC     H9X      HAL2     0.900000E-01   1.00800           0
      5740 MEMB     43       POPC     H9Y      HAL2     0.900000E-01   1.00800           0
      5741 MEMB     43       POPC     C310     CTL2    -0.180000       12.0110           0
      5742 MEMB     43       POPC     H10X     HAL2     0.900000E-01   1.00800           0
      5743 MEMB     43       POPC     H10Y     HAL2     0.900000E-01   1.00800           0
      5744 MEMB     43       POPC     C311     CTL2    -0.180000       12.0110           0
      5745 MEMB     43       POPC     H11X     HAL2     0.900000E-01   1.00800           0
      5746 MEMB     43       POPC     H11Y     HAL2     0.900000E-01   1.00800           0
      5747 MEMB     43       POPC     C312     CTL2    -0.180000       12.0110           0
      5748 MEMB     43       POPC     H12X     HAL2     0.900000E-01   1.00800           0
      5749 MEMB     43       POPC     H12Y     HAL2     0.900000E-01   1.00800           0
      5750 MEMB     43       POPC     C313     CTL2    -0.180000       12.0110           0
      5751 MEMB     43       POPC     H13X     HAL2     0.900000E-01   1.00800           0
      5752 MEMB     43       POPC     H13Y     HAL2     0.900000E-01   1.00800           0
      5753 MEMB     43       POPC     C314     CTL2    -0.180000       12.0110           0
      5754 MEMB     43       POPC     H14X     HAL2     0.900000E-01   1.00800           0
      5755 MEMB     43       POPC     H14Y     HAL2     0.900000E-01   1.00800           0
      5756 MEMB     43       POPC     C315     CTL2    -0.180000       12.0110           0
      5757 MEMB     43       POPC     H15X     HAL2     0.900000E-01   1.00800           0
      5758 MEMB     43       POPC     H15Y     HAL2     0.900000E-01   1.00800           0
      5759 MEMB     43       POPC     C316     CTL3    -0.270000       12.0110           0
      5760 MEMB     43       POPC     H16X     HAL3     0.900000E-01   1.00800           0
      5761 MEMB     43       POPC     H16Y     HAL3     0.900000E-01   1.00800           0
      5762 MEMB     43       POPC     H16Z     HAL3     0.900000E-01   1.00800           0
      5763 MEMB     44       POPC     N        NTL     -0.600000       14.0070           0
      5764 MEMB     44       POPC     C12      CTL2    -0.100000       12.0110           0
      5765 MEMB     44       POPC     H12A     HL       0.250000       1.00800           0
      5766 MEMB     44       POPC     H12B     HL       0.250000       1.00800           0
      5767 MEMB     44       POPC     C13      CTL5    -0.350000       12.0110           0
      5768 MEMB     44       POPC     H13A     HL       0.250000       1.00800           0
      5769 MEMB     44       POPC     H13B     HL       0.250000       1.00800           0
      5770 MEMB     44       POPC     H13C     HL       0.250000       1.00800           0
      5771 MEMB     44       POPC     C14      CTL5    -0.350000       12.0110           0
      5772 MEMB     44       POPC     H14A     HL       0.250000       1.00800           0
      5773 MEMB     44       POPC     H14B     HL       0.250000       1.00800           0
      5774 MEMB     44       POPC     H14C     HL       0.250000       1.00800           0
      5775 MEMB     44       POPC     C15      CTL5    -0.350000       12.0110           0
      5776 MEMB     44       POPC     H15A     HL       0.250000       1.00800           0
      5777 MEMB     44       POPC     H15B     HL       0.250000       1.00800           0
      5778 MEMB     44       POPC     H15C     HL       0.250000       1.00800           0
      5779 MEMB     44       POPC     C11      CTL2    -0.800000E-01   12.0110           0
      5780 MEMB     44       POPC     H11A     HAL2     0.900000E-01   1.00800           0
      5781 MEMB     44       POPC     H11B     HAL2     0.900000E-01   1.00800           0
      5782 MEMB     44       POPC     P        PL        1.50000       30.9740           0
      5783 MEMB     44       POPC     O13      O2L     -0.780000       15.9994           0
      5784 MEMB     44       POPC     O14      O2L     -0.780000       15.9994           0
      5785 MEMB     44       POPC     O12      OSLP    -0.570000       15.9994           0
      5786 MEMB     44       POPC     O11      OSLP    -0.570000       15.9994           0
      5787 MEMB     44       POPC     C1       CTL2    -0.800000E-01   12.0110           0
      5788 MEMB     44       POPC     HA       HAL2     0.900000E-01   1.00800           0
      5789 MEMB     44       POPC     HB       HAL2     0.900000E-01   1.00800           0
      5790 MEMB     44       POPC     C2       CTL1     0.170000       12.0110           0
      5791 MEMB     44       POPC     HS       HAL1     0.900000E-01   1.00800           0
      5792 MEMB     44       POPC     O21      OSL     -0.490000       15.9994           0
      5793 MEMB     44       POPC     C21      CL       0.900000       12.0110           0
      5794 MEMB     44       POPC     O22      OBL     -0.630000       15.9994           0
      5795 MEMB     44       POPC     C22      CTL2    -0.220000       12.0110           0
      5796 MEMB     44       POPC     H2R      HAL2     0.900000E-01   1.00800           0
      5797 MEMB     44       POPC     H2S      HAL2     0.900000E-01   1.00800           0
      5798 MEMB     44       POPC     C3       CTL2     0.800000E-01   12.0110           0
      5799 MEMB     44       POPC     HX       HAL2     0.900000E-01   1.00800           0
      5800 MEMB     44       POPC     HY       HAL2     0.900000E-01   1.00800           0
      5801 MEMB     44       POPC     O31      OSL     -0.490000       15.9994           0
      5802 MEMB     44       POPC     C31      CL       0.900000       12.0110           0
      5803 MEMB     44       POPC     O32      OBL     -0.630000       15.9994           0
      5804 MEMB     44       POPC     C32      CTL2    -0.220000       12.0110           0
      5805 MEMB     44       POPC     H2X      HAL2     0.900000E-01   1.00800           0
      5806 MEMB     44       POPC     H2Y      HAL2     0.900000E-01   1.00800           0
      5807 MEMB     44       POPC     C23      CTL2    -0.180000       12.0110           0
      5808 MEMB     44       POPC     H3R      HAL2     0.900000E-01   1.00800           0
      5809 MEMB     44       POPC     H3S      HAL2     0.900000E-01   1.00800           0
      5810 MEMB     44       POPC     C24      CTL2    -0.180000       12.0110           0
      5811 MEMB     44       POPC     H4R      HAL2     0.900000E-01   1.00800           0
      5812 MEMB     44       POPC     H4S      HAL2     0.900000E-01   1.00800           0
      5813 MEMB     44       POPC     C25      CTL2    -0.180000       12.0110           0
      5814 MEMB     44       POPC     H5R      HAL2     0.900000E-01   1.00800           0
      5815 MEMB     44       POPC     H5S      HAL2     0.900000E-01   1.00800           0
      5816 MEMB     44       POPC     C26      CTL2    -0.180000       12.0110           0
      5817 MEMB     44       POPC     H6R      HAL2     0.900000E-01   1.00800           0
      5818 MEMB     44       POPC     H6S      HAL2     0.900000E-01   1.00800           0
      5819 MEMB     44       POPC     C27      CTL2    -0.180000       12.0110           0
      5820 MEMB     44       POPC     H7R      HAL2     0.900000E-01   1.00800           0
      5821 MEMB     44       POPC     H7S      HAL2     0.900000E-01   1.00800           0
      5822 MEMB     44       POPC     C28      CTL2    -0.180000       12.0110           0
      5823 MEMB     44       POPC     H8R      HAL2     0.900000E-01   1.00800           0
      5824 MEMB     44       POPC     H8S      HAL2     0.900000E-01   1.00800           0
      5825 MEMB     44       POPC     C29      CEL1    -0.150000       12.0110           0
      5826 MEMB     44       POPC     H91      HEL1     0.150000       1.00800           0
      5827 MEMB     44       POPC     C210     CEL1    -0.150000       12.0110           0
      5828 MEMB     44       POPC     H101     HEL1     0.150000       1.00800           0
      5829 MEMB     44       POPC     C211     CTL2    -0.180000       12.0110           0
      5830 MEMB     44       POPC     H11R     HAL2     0.900000E-01   1.00800           0
      5831 MEMB     44       POPC     H11S     HAL2     0.900000E-01   1.00800           0
      5832 MEMB     44       POPC     C212     CTL2    -0.180000       12.0110           0
      5833 MEMB     44       POPC     H12R     HAL2     0.900000E-01   1.00800           0
      5834 MEMB     44       POPC     H12S     HAL2     0.900000E-01   1.00800           0
      5835 MEMB     44       POPC     C213     CTL2    -0.180000       12.0110           0
      5836 MEMB     44       POPC     H13R     HAL2     0.900000E-01   1.00800           0
      5837 MEMB     44       POPC     H13S     HAL2     0.900000E-01   1.00800           0
      5838 MEMB     44       POPC     C214     CTL2    -0.180000       12.0110           0
      5839 MEMB     44       POPC     H14R     HAL2     0.900000E-01   1.00800           0
      5840 MEMB     44       POPC     H14S     HAL2     0.900000E-01   1.00800           0
      5841 MEMB     44       POPC     C215     CTL2    -0.180000       12.0110           0
      5842 MEMB     44       POPC     H15R     HAL2     0.900000E-01   1.00800           0
      5843 MEMB     44       POPC     H15S     HAL2     0.900000E-01   1.00800           0
      5844 MEMB     44       POPC     C216     CTL2    -0.180000       12.0110           0
      5845 MEMB     44       POPC     H16R     HAL2     0.900000E-01   1.00800           0
      5846 MEMB     44       POPC     H16S     HAL2     0.900000E-01   1.00800           0
      5847 MEMB     44       POPC     C217     CTL2    -0.180000       12.0110           0
      5848 MEMB     44       POPC     H17R     HAL2     0.900000E-01   1.00800           0
      5849 MEMB     44       POPC     H17S     HAL2     0.900000E-01   1.00800           0
      5850 MEMB     44       POPC     C218     CTL3    -0.270000       12.0110           0
      5851 MEMB     44       POPC     H18R     HAL3     0.900000E-01   1.00800           0
      5852 MEMB     44       POPC     H18S     HAL3     0.900000E-01   1.00800           0
      5853 MEMB     44       POPC     H18T     HAL3     0.900000E-01   1.00800           0
      5854 MEMB     44       POPC     C33      CTL2    -0.180000       12.0110           0
      5855 MEMB     44       POPC     H3X      HAL2     0.900000E-01   1.00800           0
      5856 MEMB     44       POPC     H3Y      HAL2     0.900000E-01   1.00800           0
      5857 MEMB     44       POPC     C34      CTL2    -0.180000       12.0110           0
      5858 MEMB     44       POPC     H4X      HAL2     0.900000E-01   1.00800           0
      5859 MEMB     44       POPC     H4Y      HAL2     0.900000E-01   1.00800           0
      5860 MEMB     44       POPC     C35      CTL2    -0.180000       12.0110           0
      5861 MEMB     44       POPC     H5X      HAL2     0.900000E-01   1.00800           0
      5862 MEMB     44       POPC     H5Y      HAL2     0.900000E-01   1.00800           0
      5863 MEMB     44       POPC     C36      CTL2    -0.180000       12.0110           0
      5864 MEMB     44       POPC     H6X      HAL2     0.900000E-01   1.00800           0
      5865 MEMB     44       POPC     H6Y      HAL2     0.900000E-01   1.00800           0
      5866 MEMB     44       POPC     C37      CTL2    -0.180000       12.0110           0
      5867 MEMB     44       POPC     H7X      HAL2     0.900000E-01   1.00800           0
      5868 MEMB     44       POPC     H7Y      HAL2     0.900000E-01   1.00800           0
      5869 MEMB     44       POPC     C38      CTL2    -0.180000       12.0110           0
      5870 MEMB     44       POPC     H8X      HAL2     0.900000E-01   1.00800           0
      5871 MEMB     44       POPC     H8Y      HAL2     0.900000E-01   1.00800           0
      5872 MEMB     44       POPC     C39      CTL2    -0.180000       12.0110           0
      5873 MEMB     44       POPC     H9X      HAL2     0.900000E-01   1.00800           0
      5874 MEMB     44       POPC     H9Y      HAL2     0.900000E-01   1.00800           0
      5875 MEMB     44       POPC     C310     CTL2    -0.180000       12.0110           0
      5876 MEMB     44       POPC     H10X     HAL2     0.900000E-01   1.00800           0
      5877 MEMB     44       POPC     H10Y     HAL2     0.900000E-01   1.00800           0
      5878 MEMB     44       POPC     C311     CTL2    -0.180000       12.0110           0
      5879 MEMB     44       POPC     H11X     HAL2     0.900000E-01   1.00800           0
      5880 MEMB     44       POPC     H11Y     HAL2     0.900000E-01   1.00800           0
      5881 MEMB     44       POPC     C312     CTL2    -0.180000       12.0110           0
      5882 MEMB     44       POPC     H12X     HAL2     0.900000E-01   1.00800           0
      5883 MEMB     44       POPC     H12Y     HAL2     0.900000E-01   1.00800           0
      5884 MEMB     44       POPC     C313     CTL2    -0.180000       12.0110           0
      5885 MEMB     44       POPC     H13X     HAL2     0.900000E-01   1.00800           0
      5886 MEMB     44       POPC     H13Y     HAL2     0.900000E-01   1.00800           0
      5887 MEMB     44       POPC     C314     CTL2    -0.180000       12.0110           0
      5888 MEMB     44       POPC     H14X     HAL2     0.900000E-01   1.00800           0
      5889 MEMB     44       POPC     H14Y     HAL2     0.900000E-01   1.00800           0
      5890 MEMB     44       POPC     C315     CTL2    -0.180000       12.0110           0
      5891 MEMB     44       POPC     H15X     HAL2     0.900000E-01   1.00800           0
      5892 MEMB     44       POPC     H15Y     HAL2     0.900000E-01   1.00800           0
      5893 MEMB     44       POPC     C316     CTL3    -0.270000       12.0110           0
      5894 MEMB     44       POPC     H16X     HAL3     0.900000E-01   1.00800           0
      5895 MEMB     44       POPC     H16Y     HAL3     0.900000E-01   1.00800           0
      5896 MEMB     44       POPC     H16Z     HAL3     0.900000E-01   1.00800           0
      5897 MEMB     45       POPC     N        NTL     -0.600000       14.0070           0
      5898 MEMB     45       POPC     C12      CTL2    -0.100000       12.0110           0
      5899 MEMB     45       POPC     H12A     HL       0.250000       1.00800           0
      5900 MEMB     45       POPC     H12B     HL       0.250000       1.00800           0
      5901 MEMB     45       POPC     C13      CTL5    -0.350000       12.0110           0
      5902 MEMB     45       POPC     H13A     HL       0.250000       1.00800           0
      5903 MEMB     45       POPC     H13B     HL       0.250000       1.00800           0
      5904 MEMB     45       POPC     H13C     HL       0.250000       1.00800           0
      5905 MEMB     45       POPC     C14      CTL5    -0.350000       12.0110           0
      5906 MEMB     45       POPC     H14A     HL       0.250000       1.00800           0
      5907 MEMB     45       POPC     H14B     HL       0.250000       1.00800           0
      5908 MEMB     45       POPC     H14C     HL       0.250000       1.00800           0
      5909 MEMB     45       POPC     C15      CTL5    -0.350000       12.0110           0
      5910 MEMB     45       POPC     H15A     HL       0.250000       1.00800           0
      5911 MEMB     45       POPC     H15B     HL       0.250000       1.00800           0
      5912 MEMB     45       POPC     H15C     HL       0.250000       1.00800           0
      5913 MEMB     45       POPC     C11      CTL2    -0.800000E-01   12.0110           0
      5914 MEMB     45       POPC     H11A     HAL2     0.900000E-01   1.00800           0
      5915 MEMB     45       POPC     H11B     HAL2     0.900000E-01   1.00800           0
      5916 MEMB     45       POPC     P        PL        1.50000       30.9740           0
      5917 MEMB     45       POPC     O13      O2L     -0.780000       15.9994           0
      5918 MEMB     45       POPC     O14      O2L     -0.780000       15.9994           0
      5919 MEMB     45       POPC     O12      OSLP    -0.570000       15.9994           0
      5920 MEMB     45       POPC     O11      OSLP    -0.570000       15.9994           0
      5921 MEMB     45       POPC     C1       CTL2    -0.800000E-01   12.0110           0
      5922 MEMB     45       POPC     HA       HAL2     0.900000E-01   1.00800           0
      5923 MEMB     45       POPC     HB       HAL2     0.900000E-01   1.00800           0
      5924 MEMB     45       POPC     C2       CTL1     0.170000       12.0110           0
      5925 MEMB     45       POPC     HS       HAL1     0.900000E-01   1.00800           0
      5926 MEMB     45       POPC     O21      OSL     -0.490000       15.9994           0
      5927 MEMB     45       POPC     C21      CL       0.900000       12.0110           0
      5928 MEMB     45       POPC     O22      OBL     -0.630000       15.9994           0
      5929 MEMB     45       POPC     C22      CTL2    -0.220000       12.0110           0
      5930 MEMB     45       POPC     H2R      HAL2     0.900000E-01   1.00800           0
      5931 MEMB     45       POPC     H2S      HAL2     0.900000E-01   1.00800           0
      5932 MEMB     45       POPC     C3       CTL2     0.800000E-01   12.0110           0
      5933 MEMB     45       POPC     HX       HAL2     0.900000E-01   1.00800           0
      5934 MEMB     45       POPC     HY       HAL2     0.900000E-01   1.00800           0
      5935 MEMB     45       POPC     O31      OSL     -0.490000       15.9994           0
      5936 MEMB     45       POPC     C31      CL       0.900000       12.0110           0
      5937 MEMB     45       POPC     O32      OBL     -0.630000       15.9994           0
      5938 MEMB     45       POPC     C32      CTL2    -0.220000       12.0110           0
      5939 MEMB     45       POPC     H2X      HAL2     0.900000E-01   1.00800           0
      5940 MEMB     45       POPC     H2Y      HAL2     0.900000E-01   1.00800           0
      5941 MEMB     45       POPC     C23      CTL2    -0.180000       12.0110           0
      5942 MEMB     45       POPC     H3R      HAL2     0.900000E-01   1.00800           0
      5943 MEMB     45       POPC     H3S      HAL2     0.900000E-01   1.00800           0
      5944 MEMB     45       POPC     C24      CTL2    -0.180000       12.0110           0
      5945 MEMB     45       POPC     H4R      HAL2     0.900000E-01   1.00800           0
      5946 MEMB     45       POPC     H4S      HAL2     0.900000E-01   1.00800           0
      5947 MEMB     45       POPC     C25      CTL2    -0.180000       12.0110           0
      5948 MEMB     45       POPC     H5R      HAL2     0.900000E-01   1.00800           0
      5949 MEMB     45       POPC     H5S      HAL2     0.900000E-01   1.00800           0
      5950 MEMB     45       POPC     C26      CTL2    -0.180000       12.0110           0
      5951 MEMB     45       POPC     H6R      HAL2     0.900000E-01   1.00800           0
      5952 MEMB     45       POPC     H6S      HAL2     0.900000E-01   1.00800           0
      5953 MEMB     45       POPC     C27      CTL2    -0.180000       12.0110           0
      5954 MEMB     45       POPC     H7R      HAL2     0.900000E-01   1.00800           0
      5955 MEMB     45       POPC     H7S      HAL2     0.900000E-01   1.00800           0
      5956 MEMB     45       POPC     C28      CTL2    -0.180000       12.0110           0
      5957 MEMB     45       POPC     H8R      HAL2     0.900000E-01   1.00800           0
      5958 MEMB     45       POPC     H8S      HAL2     0.900000E-01   1.00800           0
      5959 MEMB     45       POPC     C29      CEL1    -0.150000       12.0110           0
      5960 MEMB     45       POPC     H91      HEL1     0.150000       1.00800           0
      5961 MEMB     45       POPC     C210     CEL1    -0.150000       12.0110           0
      5962 MEMB     45       POPC     H101     HEL1     0.150000       1.00800           0
      5963 MEMB     45       POPC     C211     CTL2    -0.180000       12.0110           0
      5964 MEMB     45       POPC     H11R     HAL2     0.900000E-01   1.00800           0
      5965 MEMB     45       POPC     H11S     HAL2     0.900000E-01   1.00800           0
      5966 MEMB     45       POPC     C212     CTL2    -0.180000       12.0110           0
      5967 MEMB     45       POPC     H12R     HAL2     0.900000E-01   1.00800           0
      5968 MEMB     45       POPC     H12S     HAL2     0.900000E-01   1.00800           0
      5969 MEMB     45       POPC     C213     CTL2    -0.180000       12.0110           0
      5970 MEMB     45       POPC     H13R     HAL2     0.900000E-01   1.00800           0
      5971 MEMB     45       POPC     H13S     HAL2     0.900000E-01   1.00800           0
      5972 MEMB     45       POPC     C214     CTL2    -0.180000       12.0110           0
      5973 MEMB     45       POPC     H14R     HAL2     0.900000E-01   1.00800           0
      5974 MEMB     45       POPC     H14S     HAL2     0.900000E-01   1.00800           0
      5975 MEMB     45       POPC     C215     CTL2    -0.180000       12.0110           0
      5976 MEMB     45       POPC     H15R     HAL2     0.900000E-01   1.00800           0
      5977 MEMB     45       POPC     H15S     HAL2     0.900000E-01   1.00800           0
      5978 MEMB     45       POPC     C216     CTL2    -0.180000       12.0110           0
      5979 MEMB     45       POPC     H16R     HAL2     0.900000E-01   1.00800           0
      5980 MEMB     45       POPC     H16S     HAL2     0.900000E-01   1.00800           0
      5981 MEMB     45       POPC     C217     CTL2    -0.180000       12.0110           0
      5982 MEMB     45       POPC     H17R     HAL2     0.900000E-01   1.00800           0
      5983 MEMB     45       POPC     H17S     HAL2     0.900000E-01   1.00800           0
      5984 MEMB     45       POPC     C218     CTL3    -0.270000       12.0110           0
      5985 MEMB     45       POPC     H18R     HAL3     0.900000E-01   1.00800           0
      5986 MEMB     45       POPC     H18S     HAL3     0.900000E-01   1.00800           0
      5987 MEMB     45       POPC     H18T     HAL3     0.900000E-01   1.00800           0
      5988 MEMB     45       POPC     C33      CTL2    -0.180000       12.0110           0
      5989 MEMB     45       POPC     H3X      HAL2     0.900000E-01   1.00800           0
      5990 MEMB     45       POPC     H3Y      HAL2     0.900000E-01   1.00800           0
      5991 MEMB     45       POPC     C34      CTL2    -0.180000       12.0110           0
      5992 MEMB     45       POPC     H4X      HAL2     0.900000E-01   1.00800           0
      5993 MEMB     45       POPC     H4Y      HAL2     0.900000E-01   1.00800           0
      5994 MEMB     45       POPC     C35      CTL2    -0.180000       12.0110           0
      5995 MEMB     45       POPC     H5X      HAL2     0.900000E-01   1.00800           0
      5996 MEMB     45       POPC     H5Y      HAL2     0.900000E-01   1.00800           0
      5997 MEMB     45       POPC     C36      CTL2    -0.180000       12.0110           0
      5998 MEMB     45       POPC     H6X      HAL2     0.900000E-01   1.00800           0
      5999 MEMB     45       POPC     H6Y      HAL2     0.900000E-01   1.00800           0
      6000 MEMB     45       POPC     C37      CTL2    -0.180000       12.0110           0
      6001 MEMB     45       POPC     H7X      HAL2     0.900000E-01   1.00800           0
      6002 MEMB     45       POPC     H7Y      HAL2     0.900000E-01   1.00800           0
      6003 MEMB     45       POPC     C38      CTL2    -0.180000       12.0110           0
      6004 MEMB     45       POPC     H8X      HAL2     0.900000E-01   1.00800           0
      6005 MEMB     45       POPC     H8Y      HAL2     0.900000E-01   1.00800           0
      6006 MEMB     45       POPC     C39      CTL2    -0.180000       12.0110           0
      6007 MEMB     45       POPC     H9X      HAL2     0.900000E-01   1.00800           0
      6008 MEMB     45       POPC     H9Y      HAL2     0.900000E-01   1.00800           0
      6009 MEMB     45       POPC     C310     CTL2    -0.180000       12.0110           0
      6010 MEMB     45       POPC     H10X     HAL2     0.900000E-01   1.00800           0
      6011 MEMB     45       POPC     H10Y     HAL2     0.900000E-01   1.00800           0
      6012 MEMB     45       POPC     C311     CTL2    -0.180000       12.0110           0
      6013 MEMB     45       POPC     H11X     HAL2     0.900000E-01   1.00800           0
      6014 MEMB     45       POPC     H11Y     HAL2     0.900000E-01   1.00800           0
      6015 MEMB     45       POPC     C312     CTL2    -0.180000       12.0110           0
      6016 MEMB     45       POPC     H12X     HAL2     0.900000E-01   1.00800           0
      6017 MEMB     45       POPC     H12Y     HAL2     0.900000E-01   1.00800           0
      6018 MEMB     45       POPC     C313     CTL2    -0.180000       12.0110           0
      6019 MEMB     45       POPC     H13X     HAL2     0.900000E-01   1.00800           0
      6020 MEMB     45       POPC     H13Y     HAL2     0.900000E-01   1.00800           0
      6021 MEMB     45       POPC     C314     CTL2    -0.180000       12.0110           0
      6022 MEMB     45       POPC     H14X     HAL2     0.900000E-01   1.00800           0
      6023 MEMB     45       POPC     H14Y     HAL2     0.900000E-01   1.00800           0
      6024 MEMB     45       POPC     C315     CTL2    -0.180000       12.0110           0
      6025 MEMB     45       POPC     H15X     HAL2     0.900000E-01   1.00800           0
      6026 MEMB     45       POPC     H15Y     HAL2     0.900000E-01   1.00800           0
      6027 MEMB     45       POPC     C316     CTL3    -0.270000       12.0110           0
      6028 MEMB     45       POPC     H16X     HAL3     0.900000E-01   1.00800           0
      6029 MEMB     45       POPC     H16Y     HAL3     0.900000E-01   1.00800           0
      6030 MEMB     45       POPC     H16Z     HAL3     0.900000E-01   1.00800           0
      6031 MEMB     46       POPC     N        NTL     -0.600000       14.0070           0
      6032 MEMB     46       POPC     C12      CTL2    -0.100000       12.0110           0
      6033 MEMB     46       POPC     H12A     HL       0.250000       1.00800           0
      6034 MEMB     46       POPC     H12B     HL       0.250000       1.00800           0
      6035 MEMB     46       POPC     C13      CTL5    -0.350000       12.0110           0
      6036 MEMB     46       POPC     H13A     HL       0.250000       1.00800           0
      6037 MEMB     46       POPC     H13B     HL       0.250000       1.00800           0
      6038 MEMB     46       POPC     H13C     HL       0.250000       1.00800           0
      6039 MEMB     46       POPC     C14      CTL5    -0.350000       12.0110           0
      6040 MEMB     46       POPC     H14A     HL       0.250000       1.00800           0
      6041 MEMB     46       POPC     H14B     HL       0.250000       1.00800           0
      6042 MEMB     46       POPC     H14C     HL       0.250000       1.00800           0
      6043 MEMB     46       POPC     C15      CTL5    -0.350000       12.0110           0
      6044 MEMB     46       POPC     H15A     HL       0.250000       1.00800           0
      6045 MEMB     46       POPC     H15B     HL       0.250000       1.00800           0
      6046 MEMB     46       POPC     H15C     HL       0.250000       1.00800           0
      6047 MEMB     46       POPC     C11      CTL2    -0.800000E-01   12.0110           0
      6048 MEMB     46       POPC     H11A     HAL2     0.900000E-01   1.00800           0
      6049 MEMB     46       POPC     H11B     HAL2     0.900000E-01   1.00800           0
      6050 MEMB     46       POPC     P        PL        1.50000       30.9740           0
      6051 MEMB     46       POPC     O13      O2L     -0.780000       15.9994           0
      6052 MEMB     46       POPC     O14      O2L     -0.780000       15.9994           0
      6053 MEMB     46       POPC     O12      OSLP    -0.570000       15.9994           0
      6054 MEMB     46       POPC     O11      OSLP    -0.570000       15.9994           0
      6055 MEMB     46       POPC     C1       CTL2    -0.800000E-01   12.0110           0
      6056 MEMB     46       POPC     HA       HAL2     0.900000E-01   1.00800           0
      6057 MEMB     46       POPC     HB       HAL2     0.900000E-01   1.00800           0
      6058 MEMB     46       POPC     C2       CTL1     0.170000       12.0110           0
      6059 MEMB     46       POPC     HS       HAL1     0.900000E-01   1.00800           0
      6060 MEMB     46       POPC     O21      OSL     -0.490000       15.9994           0
      6061 MEMB     46       POPC     C21      CL       0.900000       12.0110           0
      6062 MEMB     46       POPC     O22      OBL     -0.630000       15.9994           0
      6063 MEMB     46       POPC     C22      CTL2    -0.220000       12.0110           0
      6064 MEMB     46       POPC     H2R      HAL2     0.900000E-01   1.00800           0
      6065 MEMB     46       POPC     H2S      HAL2     0.900000E-01   1.00800           0
      6066 MEMB     46       POPC     C3       CTL2     0.800000E-01   12.0110           0
      6067 MEMB     46       POPC     HX       HAL2     0.900000E-01   1.00800           0
      6068 MEMB     46       POPC     HY       HAL2     0.900000E-01   1.00800           0
      6069 MEMB     46       POPC     O31      OSL     -0.490000       15.9994           0
      6070 MEMB     46       POPC     C31      CL       0.900000       12.0110           0
      6071 MEMB     46       POPC     O32      OBL     -0.630000       15.9994           0
      6072 MEMB     46       POPC     C32      CTL2    -0.220000       12.0110           0
      6073 MEMB     46       POPC     H2X      HAL2     0.900000E-01   1.00800           0
      6074 MEMB     46       POPC     H2Y      HAL2     0.900000E-01   1.00800           0
      6075 MEMB     46       POPC     C23      CTL2    -0.180000       12.0110           0
      6076 MEMB     46       POPC     H3R      HAL2     0.900000E-01   1.00800           0
      6077 MEMB     46       POPC     H3S      HAL2     0.900000E-01   1.00800           0
      6078 MEMB     46       POPC     C24      CTL2    -0.180000       12.0110           0
      6079 MEMB     46       POPC     H4R      HAL2     0.900000E-01   1.00800           0
      6080 MEMB     46       POPC     H4S      HAL2     0.900000E-01   1.00800           0
      6081 MEMB     46       POPC     C25      CTL2    -0.180000       12.0110           0
      6082 MEMB     46       POPC     H5R      HAL2     0.900000E-01   1.00800           0
      6083 MEMB     46       POPC     H5S      HAL2     0.900000E-01   1.00800           0
      6084 MEMB     46       POPC     C26      CTL2    -0.180000       12.0110           0
      6085 MEMB     46       POPC     H6R      HAL2     0.900000E-01   1.00800           0
      6086 MEMB     46       POPC     H6S      HAL2     0.900000E-01   1.00800           0
      6087 MEMB     46       POPC     C27      CTL2    -0.180000       12.0110           0
      6088 MEMB     46       POPC     H7R      HAL2     0.900000E-01   1.00800           0
      6089 MEMB     46       POPC     H7S      HAL2     0.900000E-01   1.00800           0
      6090 MEMB     46       POPC     C28      CTL2    -0.180000       12.0110           0
      6091 MEMB     46       POPC     H8R      HAL2     0.900000E-01   1.00800           0
      6092 MEMB     46       POPC     H8S      HAL2     0.900000E-01   1.00800           0
      6093 MEMB     46       POPC     C29      CEL1    -0.150000       12.0110           0
      6094 MEMB     46       POPC     H91      HEL1     0.150000       1.00800           0
      6095 MEMB     46       POPC     C210     CEL1    -0.150000       12.0110           0
      6096 MEMB     46       POPC     H101     HEL1     0.150000       1.00800           0
      6097 MEMB     46       POPC     C211     CTL2    -0.180000       12.0110           0
      6098 MEMB     46       POPC     H11R     HAL2     0.900000E-01   1.00800           0
      6099 MEMB     46       POPC     H11S     HAL2     0.900000E-01   1.00800           0
      6100 MEMB     46       POPC     C212     CTL2    -0.180000       12.0110           0
      6101 MEMB     46       POPC     H12R     HAL2     0.900000E-01   1.00800           0
      6102 MEMB     46       POPC     H12S     HAL2     0.900000E-01   1.00800           0
      6103 MEMB     46       POPC     C213     CTL2    -0.180000       12.0110           0
      6104 MEMB     46       POPC     H13R     HAL2     0.900000E-01   1.00800           0
      6105 MEMB     46       POPC     H13S     HAL2     0.900000E-01   1.00800           0
      6106 MEMB     46       POPC     C214     CTL2    -0.180000       12.0110           0
      6107 MEMB     46       POPC     H14R     HAL2     0.900000E-01   1.00800           0
      6108 MEMB     46       POPC     H14S     HAL2     0.900000E-01   1.00800           0
      6109 MEMB     46       POPC     C215     CTL2    -0.180000       12.0110           0
      6110 MEMB     46       POPC     H15R     HAL2     0.900000E-01   1.00800           0
      6111 MEMB     46       POPC     H15S     HAL2     0.900000E-01   1.00800           0
      6112 MEMB     46       POPC     C216     CTL2    -0.180000       12.0110           0
      6113 MEMB     46       POPC     H16R     HAL2     0.900000E-01   1.00800           0
      6114 MEMB     46       POPC     H16S     HAL2     0.900000E-01   1.00800           0
      6115 MEMB     46       POPC     C217     CTL2    -0.180000       12.0110           0
      6116 MEMB     46       POPC     H17R     HAL2     0.900000E-01   1.00800           0
      6117 MEMB     46       POPC     H17S     HAL2     0.900000E-01   1.00800           0
      6118 MEMB     46       POPC     C218     CTL3    -0.270000       12.0110           0
      6119 MEMB     46       POPC     H18R     HAL3     0.900000E-01   1.00800           0
      6120 MEMB     46       POPC     H18S     HAL3     0.900000E-01   1.00800           0
      6121 MEMB     46       POPC     H18T     HAL3     0.900000E-01   1.00800           0
      6122 MEMB     46       POPC     C33      CTL2    -0.180000       12.0110           0
      6123 MEMB     46       POPC     H3X      HAL2     0.900000E-01   1.00800           0
      6124 MEMB     46       POPC     H3Y      HAL2     0.900000E-01   1.00800           0
      6125 MEMB     46       POPC     C34      CTL2    -0.180000       12.0110           0
      6126 MEMB     46       POPC     H4X      HAL2     0.900000E-01   1.00800           0
      6127 MEMB     46       POPC     H4Y      HAL2     0.900000E-01   1.00800           0
      6128 MEMB     46       POPC     C35      CTL2    -0.180000       12.0110           0
      6129 MEMB     46       POPC     H5X      HAL2     0.900000E-01   1.00800           0
      6130 MEMB     46       POPC     H5Y      HAL2     0.900000E-01   1.00800           0
      6131 MEMB     46       POPC     C36      CTL2    -0.180000       12.0110           0
      6132 MEMB     46       POPC     H6X      HAL2     0.900000E-01   1.00800           0
      6133 MEMB     46       POPC     H6Y      HAL2     0.900000E-01   1.00800           0
      6134 MEMB     46       POPC     C37      CTL2    -0.180000       12.0110           0
      6135 MEMB     46       POPC     H7X      HAL2     0.900000E-01   1.00800           0
      6136 MEMB     46       POPC     H7Y      HAL2     0.900000E-01   1.00800           0
      6137 MEMB     46       POPC     C38      CTL2    -0.180000       12.0110           0
      6138 MEMB     46       POPC     H8X      HAL2     0.900000E-01   1.00800           0
      6139 MEMB     46       POPC     H8Y      HAL2     0.900000E-01   1.00800           0
      6140 MEMB     46       POPC     C39      CTL2    -0.180000       12.0110           0
      6141 MEMB     46       POPC     H9X      HAL2     0.900000E-01   1.00800           0
      6142 MEMB     46       POPC     H9Y      HAL2     0.900000E-01   1.00800           0
      6143 MEMB     46       POPC     C310     CTL2    -0.180000       12.0110           0
      6144 MEMB     46       POPC     H10X     HAL2     0.900000E-01   1.00800           0
      6145 MEMB     46       POPC     H10Y     HAL2     0.900000E-01   1.00800           0
      6146 MEMB     46       POPC     C311     CTL2    -0.180000       12.0110           0
      6147 MEMB     46       POPC     H11X     HAL2     0.900000E-01   1.00800           0
      6148 MEMB     46       POPC     H11Y     HAL2     0.900000E-01   1.00800           0
      6149 MEMB     46       POPC     C312     CTL2    -0.180000       12.0110           0
      6150 MEMB     46       POPC     H12X     HAL2     0.900000E-01   1.00800           0
      6151 MEMB     46       POPC     H12Y     HAL2     0.900000E-01   1.00800           0
      6152 MEMB     46       POPC     C313     CTL2    -0.180000       12.0110           0
      6153 MEMB     46       POPC     H13X     HAL2     0.900000E-01   1.00800           0
      6154 MEMB     46       POPC     H13Y     HAL2     0.900000E-01   1.00800           0
      6155 MEMB     46       POPC     C314     CTL2    -0.180000       12.0110           0
      6156 MEMB     46       POPC     H14X     HAL2     0.900000E-01   1.00800           0
      6157 MEMB     46       POPC     H14Y     HAL2     0.900000E-01   1.00800           0
      6158 MEMB     46       POPC     C315     CTL2    -0.180000       12.0110           0
      6159 MEMB     46       POPC     H15X     HAL2     0.900000E-01   1.00800           0
      6160 MEMB     46       POPC     H15Y     HAL2     0.900000E-01   1.00800           0
      6161 MEMB     46       POPC     C316     CTL3    -0.270000       12.0110           0
      6162 MEMB     46       POPC     H16X     HAL3     0.900000E-01   1.00800           0
      6163 MEMB     46       POPC     H16Y     HAL3     0.900000E-01   1.00800           0
      6164 MEMB     46       POPC     H16Z     HAL3     0.900000E-01   1.00800           0
      6165 MEMB     47       POPC     N        NTL     -0.600000       14.0070           0
      6166 MEMB     47       POPC     C12      CTL2    -0.100000       12.0110           0
      6167 MEMB     47       POPC     H12A     HL       0.250000       1.00800           0
      6168 MEMB     47       POPC     H12B     HL       0.250000       1.00800           0
      6169 MEMB     47       POPC     C13      CTL5    -0.350000       12.0110           0
      6170 MEMB     47       POPC     H13A     HL       0.250000       1.00800           0
      6171 MEMB     47       POPC     H13B     HL       0.250000       1.00800           0
      6172 MEMB     47       POPC     H13C     HL       0.250000       1.00800           0
      6173 MEMB     47       POPC     C14      CTL5    -0.350000       12.0110           0
      6174 MEMB     47       POPC     H14A     HL       0.250000       1.00800           0
      6175 MEMB     47       POPC     H14B     HL       0.250000       1.00800           0
      6176 MEMB     47       POPC     H14C     HL       0.250000       1.00800           0
      6177 MEMB     47       POPC     C15      CTL5    -0.350000       12.0110           0
      6178 MEMB     47       POPC     H15A     HL       0.250000       1.00800           0
      6179 MEMB     47       POPC     H15B     HL       0.250000       1.00800           0
      6180 MEMB     47       POPC     H15C     HL       0.250000       1.00800           0
      6181 MEMB     47       POPC     C11      CTL2    -0.800000E-01   12.0110           0
      6182 MEMB     47       POPC     H11A     HAL2     0.900000E-01   1.00800           0
      6183 MEMB     47       POPC     H11B     HAL2     0.900000E-01   1.00800           0
      6184 MEMB     47       POPC     P        PL        1.50000       30.9740           0
      6185 MEMB     47       POPC     O13      O2L     -0.780000       15.9994           0
      6186 MEMB     47       POPC     O14      O2L     -0.780000       15.9994           0
      6187 MEMB     47       POPC     O12      OSLP    -0.570000       15.9994           0
      6188 MEMB     47       POPC     O11      OSLP    -0.570000       15.9994           0
      6189 MEMB     47       POPC     C1       CTL2    -0.800000E-01   12.0110           0
      6190 MEMB     47       POPC     HA       HAL2     0.900000E-01   1.00800           0
      6191 MEMB     47       POPC     HB       HAL2     0.900000E-01   1.00800           0
      6192 MEMB     47       POPC     C2       CTL1     0.170000       12.0110           0
      6193 MEMB     47       POPC     HS       HAL1     0.900000E-01   1.00800           0
      6194 MEMB     47       POPC     O21      OSL     -0.490000       15.9994           0
      6195 MEMB     47       POPC     C21      CL       0.900000       12.0110           0
      6196 MEMB     47       POPC     O22      OBL     -0.630000       15.9994           0
      6197 MEMB     47       POPC     C22      CTL2    -0.220000       12.0110           0
      6198 MEMB     47       POPC     H2R      HAL2     0.900000E-01   1.00800           0
      6199 MEMB     47       POPC     H2S      HAL2     0.900000E-01   1.00800           0
      6200 MEMB     47       POPC     C3       CTL2     0.800000E-01   12.0110           0
      6201 MEMB     47       POPC     HX       HAL2     0.900000E-01   1.00800           0
      6202 MEMB     47       POPC     HY       HAL2     0.900000E-01   1.00800           0
      6203 MEMB     47       POPC     O31      OSL     -0.490000       15.9994           0
      6204 MEMB     47       POPC     C31      CL       0.900000       12.0110           0
      6205 MEMB     47       POPC     O32      OBL     -0.630000       15.9994           0
      6206 MEMB     47       POPC     C32      CTL2    -0.220000       12.0110           0
      6207 MEMB     47       POPC     H2X      HAL2     0.900000E-01   1.00800           0
      6208 MEMB     47       POPC     H2Y      HAL2     0.900000E-01   1.00800           0
      6209 MEMB     47       POPC     C23      CTL2    -0.180000       12.0110           0
      6210 MEMB     47       POPC     H3R      HAL2     0.900000E-01   1.00800           0
      6211 MEMB     47       POPC     H3S      HAL2     0.900000E-01   1.00800           0
      6212 MEMB     47       POPC     C24      CTL2    -0.180000       12.0110           0
      6213 MEMB     47       POPC     H4R      HAL2     0.900000E-01   1.00800           0
      6214 MEMB     47       POPC     H4S      HAL2     0.900000E-01   1.00800           0
      6215 MEMB     47       POPC     C25      CTL2    -0.180000       12.0110           0
      6216 MEMB     47       POPC     H5R      HAL2     0.900000E-01   1.00800           0
      6217 MEMB     47       POPC     H5S      HAL2     0.900000E-01   1.00800           0
      6218 MEMB     47       POPC     C26      CTL2    -0.180000       12.0110           0
      6219 MEMB     47       POPC     H6R      HAL2     0.900000E-01   1.00800           0
      6220 MEMB     47       POPC     H6S      HAL2     0.900000E-01   1.00800           0
      6221 MEMB     47       POPC     C27      CTL2    -0.180000       12.0110           0
      6222 MEMB     47       POPC     H7R      HAL2     0.900000E-01   1.00800           0
      6223 MEMB     47       POPC     H7S      HAL2     0.900000E-01   1.00800           0
      6224 MEMB     47       POPC     C28      CTL2    -0.180000       12.0110           0
      6225 MEMB     47       POPC     H8R      HAL2     0.900000E-01   1.00800           0
      6226 MEMB     47       POPC     H8S      HAL2     0.900000E-01   1.00800           0
      6227 MEMB     47       POPC     C29      CEL1    -0.150000       12.0110           0
      6228 MEMB     47       POPC     H91      HEL1     0.150000       1.00800           0
      6229 MEMB     47       POPC     C210     CEL1    -0.150000       12.0110           0
      6230 MEMB     47       POPC     H101     HEL1     0.150000       1.00800           0
      6231 MEMB     47       POPC     C211     CTL2    -0.180000       12.0110           0
      6232 MEMB     47       POPC     H11R     HAL2     0.900000E-01   1.00800           0
      6233 MEMB     47       POPC     H11S     HAL2     0.900000E-01   1.00800           0
      6234 MEMB     47       POPC     C212     CTL2    -0.180000       12.0110           0
      6235 MEMB     47       POPC     H12R     HAL2     0.900000E-01   1.00800           0
      6236 MEMB     47       POPC     H12S     HAL2     0.900000E-01   1.00800           0
      6237 MEMB     47       POPC     C213     CTL2    -0.180000       12.0110           0
      6238 MEMB     47       POPC     H13R     HAL2     0.900000E-01   1.00800           0
      6239 MEMB     47       POPC     H13S     HAL2     0.900000E-01   1.00800           0
      6240 MEMB     47       POPC     C214     CTL2    -0.180000       12.0110           0
      6241 MEMB     47       POPC     H14R     HAL2     0.900000E-01   1.00800           0
      6242 MEMB     47       POPC     H14S     HAL2     0.900000E-01   1.00800           0
      6243 MEMB     47       POPC     C215     CTL2    -0.180000       12.0110           0
      6244 MEMB     47       POPC     H15R     HAL2     0.900000E-01   1.00800           0
      6245 MEMB     47       POPC     H15S     HAL2     0.900000E-01   1.00800           0
      6246 MEMB     47       POPC     C216     CTL2    -0.180000       12.0110           0
      6247 MEMB     47       POPC     H16R     HAL2     0.900000E-01   1.00800           0
      6248 MEMB     47       POPC     H16S     HAL2     0.900000E-01   1.00800           0
      6249 MEMB     47       POPC     C217     CTL2    -0.180000       12.0110           0
      6250 MEMB     47       POPC     H17R     HAL2     0.900000E-01   1.00800           0
      6251 MEMB     47       POPC     H17S     HAL2     0.900000E-01   1.00800           0
      6252 MEMB     47       POPC     C218     CTL3    -0.270000       12.0110           0
      6253 MEMB     47       POPC     H18R     HAL3     0.900000E-01   1.00800           0
      6254 MEMB     47       POPC     H18S     HAL3     0.900000E-01   1.00800           0
      6255 MEMB     47       POPC     H18T     HAL3     0.900000E-01   1.00800           0
      6256 MEMB     47       POPC     C33      CTL2    -0.180000       12.0110           0
      6257 MEMB     47       POPC     H3X      HAL2     0.900000E-01   1.00800           0
      6258 MEMB     47       POPC     H3Y      HAL2     0.900000E-01   1.00800           0
      6259 MEMB     47       POPC     C34      CTL2    -0.180000       12.0110           0
      6260 MEMB     47       POPC     H4X      HAL2     0.900000E-01   1.00800           0
      6261 MEMB     47       POPC     H4Y      HAL2     0.900000E-01   1.00800           0
      6262 MEMB     47       POPC     C35      CTL2    -0.180000       12.0110           0
      6263 MEMB     47       POPC     H5X      HAL2     0.900000E-01   1.00800           0
      6264 MEMB     47       POPC     H5Y      HAL2     0.900000E-01   1.00800           0
      6265 MEMB     47       POPC     C36      CTL2    -0.180000       12.0110           0
      6266 MEMB     47       POPC     H6X      HAL2     0.900000E-01   1.00800           0
      6267 MEMB     47       POPC     H6Y      HAL2     0.900000E-01   1.00800           0
      6268 MEMB     47       POPC     C37      CTL2    -0.180000       12.0110           0
      6269 MEMB     47       POPC     H7X      HAL2     0.900000E-01   1.00800           0
      6270 MEMB     47       POPC     H7Y      HAL2     0.900000E-01   1.00800           0
      6271 MEMB     47       POPC     C38      CTL2    -0.180000       12.0110           0
      6272 MEMB     47       POPC     H8X      HAL2     0.900000E-01   1.00800           0
      6273 MEMB     47       POPC     H8Y      HAL2     0.900000E-01   1.00800           0
      6274 MEMB     47       POPC     C39      CTL2    -0.180000       12.0110           0
      6275 MEMB     47       POPC     H9X      HAL2     0.900000E-01   1.00800           0
      6276 MEMB     47       POPC     H9Y      HAL2     0.900000E-01   1.00800           0
      6277 MEMB     47       POPC     C310     CTL2    -0.180000       12.0110           0
      6278 MEMB     47       POPC     H10X     HAL2     0.900000E-01   1.00800           0
      6279 MEMB     47       POPC     H10Y     HAL2     0.900000E-01   1.00800           0
      6280 MEMB     47       POPC     C311     CTL2    -0.180000       12.0110           0
      6281 MEMB     47       POPC     H11X     HAL2     0.900000E-01   1.00800           0
      6282 MEMB     47       POPC     H11Y     HAL2     0.900000E-01   1.00800           0
      6283 MEMB     47       POPC     C312     CTL2    -0.180000       12.0110           0
      6284 MEMB     47       POPC     H12X     HAL2     0.900000E-01   1.00800           0
      6285 MEMB     47       POPC     H12Y     HAL2     0.900000E-01   1.00800           0
      6286 MEMB     47       POPC     C313     CTL2    -0.180000       12.0110           0
      6287 MEMB     47       POPC     H13X     HAL2     0.900000E-01   1.00800           0
      6288 MEMB     47       POPC     H13Y     HAL2     0.900000E-01   1.00800           0
      6289 MEMB     47       POPC     C314     CTL2    -0.180000       12.0110           0
      6290 MEMB     47       POPC     H14X     HAL2     0.900000E-01   1.00800           0
      6291 MEMB     47       POPC     H14Y     HAL2     0.900000E-01   1.00800           0
      6292 MEMB     47       POPC     C315     CTL2    -0.180000       12.0110           0
      6293 MEMB     47       POPC     H15X     HAL2     0.900000E-01   1.00800           0
      6294 MEMB     47       POPC     H15Y     HAL2     0.900000E-01   1.00800           0
      6295 MEMB     47       POPC     C316     CTL3    -0.270000       12.0110           0
      6296 MEMB     47       POPC     H16X     HAL3     0.900000E-01   1.00800           0
      6297 MEMB     47       POPC     H16Y     HAL3     0.900000E-01   1.00800           0
      6298 MEMB     47       POPC     H16Z     HAL3     0.900000E-01   1.00800           0
      6299 MEMB     48       POPC     N        NTL     -0.600000       14.0070           0
      6300 MEMB     48       POPC     C12      CTL2    -0.100000       12.0110           0
      6301 MEMB     48       POPC     H12A     HL       0.250000       1.00800           0
      6302 MEMB     48       POPC     H12B     HL       0.250000       1.00800           0
      6303 MEMB     48       POPC     C13      CTL5    -0.350000       12.0110           0
      6304 MEMB     48       POPC     H13A     HL       0.250000       1.00800           0
      6305 MEMB     48       POPC     H13B     HL       0.250000       1.00800           0
      6306 MEMB     48       POPC     H13C     HL       0.250000       1.00800           0
      6307 MEMB     48       POPC     C14      CTL5    -0.350000       12.0110           0
      6308 MEMB     48       POPC     H14A     HL       0.250000       1.00800           0
      6309 MEMB     48       POPC     H14B     HL       0.250000       1.00800           0
      6310 MEMB     48       POPC     H14C     HL       0.250000       1.00800           0
      6311 MEMB     48       POPC     C15      CTL5    -0.350000       12.0110           0
      6312 MEMB     48       POPC     H15A     HL       0.250000       1.00800           0
      6313 MEMB     48       POPC     H15B     HL       0.250000       1.00800           0
      6314 MEMB     48       POPC     H15C     HL       0.250000       1.00800           0
      6315 MEMB     48       POPC     C11      CTL2    -0.800000E-01   12.0110           0
      6316 MEMB     48       POPC     H11A     HAL2     0.900000E-01   1.00800           0
      6317 MEMB     48       POPC     H11B     HAL2     0.900000E-01   1.00800           0
      6318 MEMB     48       POPC     P        PL        1.50000       30.9740           0
      6319 MEMB     48       POPC     O13      O2L     -0.780000       15.9994           0
      6320 MEMB     48       POPC     O14      O2L     -0.780000       15.9994           0
      6321 MEMB     48       POPC     O12      OSLP    -0.570000       15.9994           0
      6322 MEMB     48       POPC     O11      OSLP    -0.570000       15.9994           0
      6323 MEMB     48       POPC     C1       CTL2    -0.800000E-01   12.0110           0
      6324 MEMB     48       POPC     HA       HAL2     0.900000E-01   1.00800           0
      6325 MEMB     48       POPC     HB       HAL2     0.900000E-01   1.00800           0
      6326 MEMB     48       POPC     C2       CTL1     0.170000       12.0110           0
      6327 MEMB     48       POPC     HS       HAL1     0.900000E-01   1.00800           0
      6328 MEMB     48       POPC     O21      OSL     -0.490000       15.9994           0
      6329 MEMB     48       POPC     C21      CL       0.900000       12.0110           0
      6330 MEMB     48       POPC     O22      OBL     -0.630000       15.9994           0
      6331 MEMB     48       POPC     C22      CTL2    -0.220000       12.0110           0
      6332 MEMB     48       POPC     H2R      HAL2     0.900000E-01   1.00800           0
      6333 MEMB     48       POPC     H2S      HAL2     0.900000E-01   1.00800           0
      6334 MEMB     48       POPC     C3       CTL2     0.800000E-01   12.0110           0
      6335 MEMB     48       POPC     HX       HAL2     0.900000E-01   1.00800           0
      6336 MEMB     48       POPC     HY       HAL2     0.900000E-01   1.00800           0
      6337 MEMB     48       POPC     O31      OSL     -0.490000       15.9994           0
      6338 MEMB     48       POPC     C31      CL       0.900000       12.0110           0
      6339 MEMB     48       POPC     O32      OBL     -0.630000       15.9994           0
      6340 MEMB     48       POPC     C32      CTL2    -0.220000       12.0110           0
      6341 MEMB     48       POPC     H2X      HAL2     0.900000E-01   1.00800           0
      6342 MEMB     48       POPC     H2Y      HAL2     0.900000E-01   1.00800           0
      6343 MEMB     48       POPC     C23      CTL2    -0.180000       12.0110           0
      6344 MEMB     48       POPC     H3R      HAL2     0.900000E-01   1.00800           0
      6345 MEMB     48       POPC     H3S      HAL2     0.900000E-01   1.00800           0
      6346 MEMB     48       POPC     C24      CTL2    -0.180000       12.0110           0
      6347 MEMB     48       POPC     H4R      HAL2     0.900000E-01   1.00800           0
      6348 MEMB     48       POPC     H4S      HAL2     0.900000E-01   1.00800           0
      6349 MEMB     48       POPC     C25      CTL2    -0.180000       12.0110           0
      6350 MEMB     48       POPC     H5R      HAL2     0.900000E-01   1.00800           0
      6351 MEMB     48       POPC     H5S      HAL2     0.900000E-01   1.00800           0
      6352 MEMB     48       POPC     C26      CTL2    -0.180000       12.0110           0
      6353 MEMB     48       POPC     H6R      HAL2     0.900000E-01   1.00800           0
      6354 MEMB     48       POPC     H6S      HAL2     0.900000E-01   1.00800           0
      6355 MEMB     48       POPC     C27      CTL2    -0.180000       12.0110           0
      6356 MEMB     48       POPC     H7R      HAL2     0.900000E-01   1.00800           0
      6357 MEMB     48       POPC     H7S      HAL2     0.900000E-01   1.00800           0
      6358 MEMB     48       POPC     C28      CTL2    -0.180000       12.0110           0
      6359 MEMB     48       POPC     H8R      HAL2     0.900000E-01   1.00800           0
      6360 MEMB     48       POPC     H8S      HAL2     0.900000E-01   1.00800           0
      6361 MEMB     48       POPC     C29      CEL1    -0.150000       12.0110           0
      6362 MEMB     48       POPC     H91      HEL1     0.150000       1.00800           0
      6363 MEMB     48       POPC     C210     CEL1    -0.150000       12.0110           0
      6364 MEMB     48       POPC     H101     HEL1     0.150000       1.00800           0
      6365 MEMB     48       POPC     C211     CTL2    -0.180000       12.0110           0
      6366 MEMB     48       POPC     H11R     HAL2     0.900000E-01   1.00800           0
      6367 MEMB     48       POPC     H11S     HAL2     0.900000E-01   1.00800           0
      6368 MEMB     48       POPC     C212     CTL2    -0.180000       12.0110           0
      6369 MEMB     48       POPC     H12R     HAL2     0.900000E-01   1.00800           0
      6370 MEMB     48       POPC     H12S     HAL2     0.900000E-01   1.00800           0
      6371 MEMB     48       POPC     C213     CTL2    -0.180000       12.0110           0
      6372 MEMB     48       POPC     H13R     HAL2     0.900000E-01   1.00800           0
      6373 MEMB     48       POPC     H13S     HAL2     0.900000E-01   1.00800           0
      6374 MEMB     48       POPC     C214     CTL2    -0.180000       12.0110           0
      6375 MEMB     48       POPC     H14R     HAL2     0.900000E-01   1.00800           0
      6376 MEMB     48       POPC     H14S     HAL2     0.900000E-01   1.00800           0
      6377 MEMB     48       POPC     C215     CTL2    -0.180000       12.0110           0
      6378 MEMB     48       POPC     H15R     HAL2     0.900000E-01   1.00800           0
      6379 MEMB     48       POPC     H15S     HAL2     0.900000E-01   1.00800           0
      6380 MEMB     48       POPC     C216     CTL2    -0.180000       12.0110           0
      6381 MEMB     48       POPC     H16R     HAL2     0.900000E-01   1.00800           0
      6382 MEMB     48       POPC     H16S     HAL2     0.900000E-01   1.00800           0
      6383 MEMB     48       POPC     C217     CTL2    -0.180000       12.0110           0
      6384 MEMB     48       POPC     H17R     HAL2     0.900000E-01   1.00800           0
      6385 MEMB     48       POPC     H17S     HAL2     0.900000E-01   1.00800           0
      6386 MEMB     48       POPC     C218     CTL3    -0.270000       12.0110           0
      6387 MEMB     48       POPC     H18R     HAL3     0.900000E-01   1.00800           0
      6388 MEMB     48       POPC     H18S     HAL3     0.900000E-01   1.00800           0
      6389 MEMB     48       POPC     H18T     HAL3     0.900000E-01   1.00800           0
      6390 MEMB     48       POPC     C33      CTL2    -0.180000       12.0110           0
      6391 MEMB     48       POPC     H3X      HAL2     0.900000E-01   1.00800           0
      6392 MEMB     48       POPC     H3Y      HAL2     0.900000E-01   1.00800           0
      6393 MEMB     48       POPC     C34      CTL2    -0.180000       12.0110           0
      6394 MEMB     48       POPC     H4X      HAL2     0.900000E-01   1.00800           0
      6395 MEMB     48       POPC     H4Y      HAL2     0.900000E-01   1.00800           0
      6396 MEMB     48       POPC     C35      CTL2    -0.180000       12.0110           0
      6397 MEMB     48       POPC     H5X      HAL2     0.900000E-01   1.00800           0
      6398 MEMB     48       POPC     H5Y      HAL2     0.900000E-01   1.00800           0
      6399 MEMB     48       POPC     C36      CTL2    -0.180000       12.0110           0
      6400 MEMB     48       POPC     H6X      HAL2     0.900000E-01   1.00800           0
      6401 MEMB     48       POPC     H6Y      HAL2     0.900000E-01   1.00800           0
      6402 MEMB     48       POPC     C37      CTL2    -0.180000       12.0110           0
      6403 MEMB     48       POPC     H7X      HAL2     0.900000E-01   1.00800           0
      6404 MEMB     48       POPC     H7Y      HAL2     0.900000E-01   1.00800           0
      6405 MEMB     48       POPC     C38      CTL2    -0.180000       12.0110           0
      6406 MEMB     48       POPC     H8X      HAL2     0.900000E-01   1.00800           0
      6407 MEMB     48       POPC     H8Y      HAL2     0.900000E-01   1.00800           0
      6408 MEMB     48       POPC     C39      CTL2    -0.180000       12.0110           0
      6409 MEMB     48       POPC     H9X      HAL2     0.900000E-01   1.00800           0
      6410 MEMB     48       POPC     H9Y      HAL2     0.900000E-01   1.00800           0
      6411 MEMB     48       POPC     C310     CTL2    -0.180000       12.0110           0
      6412 MEMB     48       POPC     H10X     HAL2     0.900000E-01   1.00800           0
      6413 MEMB     48       POPC     H10Y     HAL2     0.900000E-01   1.00800           0
      6414 MEMB     48       POPC     C311     CTL2    -0.180000       12.0110           0
      6415 MEMB     48       POPC     H11X     HAL2     0.900000E-01   1.00800           0
      6416 MEMB     48       POPC     H11Y     HAL2     0.900000E-01   1.00800           0
      6417 MEMB     48       POPC     C312     CTL2    -0.180000       12.0110           0
      6418 MEMB     48       POPC     H12X     HAL2     0.900000E-01   1.00800           0
      6419 MEMB     48       POPC     H12Y     HAL2     0.900000E-01   1.00800           0
      6420 MEMB     48       POPC     C313     CTL2    -0.180000       12.0110           0
      6421 MEMB     48       POPC     H13X     HAL2     0.900000E-01   1.00800           0
      6422 MEMB     48       POPC     H13Y     HAL2     0.900000E-01   1.00800           0
      6423 MEMB     48       POPC     C314     CTL2    -0.180000       12.0110           0
      6424 MEMB     48       POPC     H14X     HAL2     0.900000E-01   1.00800           0
      6425 MEMB     48       POPC     H14Y     HAL2     0.900000E-01   1.00800           0
      6426 MEMB     48       POPC     C315     CTL2    -0.180000       12.0110           0
      6427 MEMB     48       POPC     H15X     HAL2     0.900000E-01   1.00800           0
      6428 MEMB     48       POPC     H15Y     HAL2     0.900000E-01   1.00800           0
      6429 MEMB     48       POPC     C316     CTL3    -0.270000       12.0110           0
      6430 MEMB     48       POPC     H16X     HAL3     0.900000E-01   1.00800           0
      6431 MEMB     48       POPC     H16Y     HAL3     0.900000E-01   1.00800           0
      6432 MEMB     48       POPC     H16Z     HAL3     0.900000E-01   1.00800           0
      6433 MEMB     49       POPC     N        NTL     -0.600000       14.0070           0
      6434 MEMB     49       POPC     C12      CTL2    -0.100000       12.0110           0
      6435 MEMB     49       POPC     H12A     HL       0.250000       1.00800           0
      6436 MEMB     49       POPC     H12B     HL       0.250000       1.00800           0
      6437 MEMB     49       POPC     C13      CTL5    -0.350000       12.0110           0
      6438 MEMB     49       POPC     H13A     HL       0.250000       1.00800           0
      6439 MEMB     49       POPC     H13B     HL       0.250000       1.00800           0
      6440 MEMB     49       POPC     H13C     HL       0.250000       1.00800           0
      6441 MEMB     49       POPC     C14      CTL5    -0.350000       12.0110           0
      6442 MEMB     49       POPC     H14A     HL       0.250000       1.00800           0
      6443 MEMB     49       POPC     H14B     HL       0.250000       1.00800           0
      6444 MEMB     49       POPC     H14C     HL       0.250000       1.00800           0
      6445 MEMB     49       POPC     C15      CTL5    -0.350000       12.0110           0
      6446 MEMB     49       POPC     H15A     HL       0.250000       1.00800           0
      6447 MEMB     49       POPC     H15B     HL       0.250000       1.00800           0
      6448 MEMB     49       POPC     H15C     HL       0.250000       1.00800           0
      6449 MEMB     49       POPC     C11      CTL2    -0.800000E-01   12.0110           0
      6450 MEMB     49       POPC     H11A     HAL2     0.900000E-01   1.00800           0
      6451 MEMB     49       POPC     H11B     HAL2     0.900000E-01   1.00800           0
      6452 MEMB     49       POPC     P        PL        1.50000       30.9740           0
      6453 MEMB     49       POPC     O13      O2L     -0.780000       15.9994           0
      6454 MEMB     49       POPC     O14      O2L     -0.780000       15.9994           0
      6455 MEMB     49       POPC     O12      OSLP    -0.570000       15.9994           0
      6456 MEMB     49       POPC     O11      OSLP    -0.570000       15.9994           0
      6457 MEMB     49       POPC     C1       CTL2    -0.800000E-01   12.0110           0
      6458 MEMB     49       POPC     HA       HAL2     0.900000E-01   1.00800           0
      6459 MEMB     49       POPC     HB       HAL2     0.900000E-01   1.00800           0
      6460 MEMB     49       POPC     C2       CTL1     0.170000       12.0110           0
      6461 MEMB     49       POPC     HS       HAL1     0.900000E-01   1.00800           0
      6462 MEMB     49       POPC     O21      OSL     -0.490000       15.9994           0
      6463 MEMB     49       POPC     C21      CL       0.900000       12.0110           0
      6464 MEMB     49       POPC     O22      OBL     -0.630000       15.9994           0
      6465 MEMB     49       POPC     C22      CTL2    -0.220000       12.0110           0
      6466 MEMB     49       POPC     H2R      HAL2     0.900000E-01   1.00800           0
      6467 MEMB     49       POPC     H2S      HAL2     0.900000E-01   1.00800           0
      6468 MEMB     49       POPC     C3       CTL2     0.800000E-01   12.0110           0
      6469 MEMB     49       POPC     HX       HAL2     0.900000E-01   1.00800           0
      6470 MEMB     49       POPC     HY       HAL2     0.900000E-01   1.00800           0
      6471 MEMB     49       POPC     O31      OSL     -0.490000       15.9994           0
      6472 MEMB     49       POPC     C31      CL       0.900000       12.0110           0
      6473 MEMB     49       POPC     O32      OBL     -0.630000       15.9994           0
      6474 MEMB     49       POPC     C32      CTL2    -0.220000       12.0110           0
      6475 MEMB     49       POPC     H2X      HAL2     0.900000E-01   1.00800           0
      6476 MEMB     49       POPC     H2Y      HAL2     0.900000E-01   1.00800           0
      6477 MEMB     49       POPC     C23      CTL2    -0.180000       12.0110           0
      6478 MEMB     49       POPC     H3R      HAL2     0.900000E-01   1.00800           0
      6479 MEMB     49       POPC     H3S      HAL2     0.900000E-01   1.00800           0
      6480 MEMB     49       POPC     C24      CTL2    -0.180000       12.0110           0
      6481 MEMB     49       POPC     H4R      HAL2     0.900000E-01   1.00800           0
      6482 MEMB     49       POPC     H4S      HAL2     0.900000E-01   1.00800           0
      6483 MEMB     49       POPC     C25      CTL2    -0.180000       12.0110           0
      6484 MEMB     49       POPC     H5R      HAL2     0.900000E-01   1.00800           0
      6485 MEMB     49       POPC     H5S      HAL2     0.900000E-01   1.00800           0
      6486 MEMB     49       POPC     C26      CTL2    -0.180000       12.0110           0
      6487 MEMB     49       POPC     H6R      HAL2     0.900000E-01   1.00800           0
      6488 MEMB     49       POPC     H6S      HAL2     0.900000E-01   1.00800           0
      6489 MEMB     49       POPC     C27      CTL2    -0.180000       12.0110           0
      6490 MEMB     49       POPC     H7R      HAL2     0.900000E-01   1.00800           0
      6491 MEMB     49       POPC     H7S      HAL2     0.900000E-01   1.00800           0
      6492 MEMB     49       POPC     C28      CTL2    -0.180000       12.0110           0
      6493 MEMB     49       POPC     H8R      HAL2     0.900000E-01   1.00800           0
      6494 MEMB     49       POPC     H8S      HAL2     0.900000E-01   1.00800           0
      6495 MEMB     49       POPC     C29      CEL1    -0.150000       12.0110           0
      6496 MEMB     49       POPC     H91      HEL1     0.150000       1.00800           0
      6497 MEMB     49       POPC     C210     CEL1    -0.150000       12.0110           0
      6498 MEMB     49       POPC     H101     HEL1     0.150000       1.00800           0
      6499 MEMB     49       POPC     C211     CTL2    -0.180000       12.0110           0
      6500 MEMB     49       POPC     H11R     HAL2     0.900000E-01   1.00800           0
      6501 MEMB     49       POPC     H11S     HAL2     0.900000E-01   1.00800           0
      6502 MEMB     49       POPC     C212     CTL2    -0.180000       12.0110           0
      6503 MEMB     49       POPC     H12R     HAL2     0.900000E-01   1.00800           0
      6504 MEMB     49       POPC     H12S     HAL2     0.900000E-01   1.00800           0
      6505 MEMB     49       POPC     C213     CTL2    -0.180000       12.0110           0
      6506 MEMB     49       POPC     H13R     HAL2     0.900000E-01   1.00800           0
      6507 MEMB     49       POPC     H13S     HAL2     0.900000E-01   1.00800           0
      6508 MEMB     49       POPC     C214     CTL2    -0.180000       12.0110           0
      6509 MEMB     49       POPC     H14R     HAL2     0.900000E-01   1.00800           0
      6510 MEMB     49       POPC     H14S     HAL2     0.900000E-01   1.00800           0
      6511 MEMB     49       POPC     C215     CTL2    -0.180000       12.0110           0
      6512 MEMB     49       POPC     H15R     HAL2     0.900000E-01   1.00800           0
      6513 MEMB     49       POPC     H15S     HAL2     0.900000E-01   1.00800           0
      6514 MEMB     49       POPC     C216     CTL2    -0.180000       12.0110           0
      6515 MEMB     49       POPC     H16R     HAL2     0.900000E-01   1.00800           0
      6516 MEMB     49       POPC     H16S     HAL2     0.900000E-01   1.00800           0
      6517 MEMB     49       POPC     C217     CTL2    -0.180000       12.0110           0
      6518 MEMB     49       POPC     H17R     HAL2     0.900000E-01   1.00800           0
      6519 MEMB     49       POPC     H17S     HAL2     0.900000E-01   1.00800           0
      6520 MEMB     49       POPC     C218     CTL3    -0.270000       12.0110           0
      6521 MEMB     49       POPC     H18R     HAL3     0.900000E-01   1.00800           0
      6522 MEMB     49       POPC     H18S     HAL3     0.900000E-01   1.00800           0
      6523 MEMB     49       POPC     H18T     HAL3     0.900000E-01   1.00800           0
      6524 MEMB     49       POPC     C33      CTL2    -0.180000       12.0110           0
      6525 MEMB     49       POPC     H3X      HAL2     0.900000E-01   1.00800           0
      6526 MEMB     49       POPC     H3Y      HAL2     0.900000E-01   1.00800           0
      6527 MEMB     49       POPC     C34      CTL2    -0.180000       12.0110           0
      6528 MEMB     49       POPC     H4X      HAL2     0.900000E-01   1.00800           0
      6529 MEMB     49       POPC     H4Y      HAL2     0.900000E-01   1.00800           0
      6530 MEMB     49       POPC     C35      CTL2    -0.180000       12.0110           0
      6531 MEMB     49       POPC     H5X      HAL2     0.900000E-01   1.00800           0
      6532 MEMB     49       POPC     H5Y      HAL2     0.900000E-01   1.00800           0
      6533 MEMB     49       POPC     C36      CTL2    -0.180000       12.0110           0
      6534 MEMB     49       POPC     H6X      HAL2     0.900000E-01   1.00800           0
      6535 MEMB     49       POPC     H6Y      HAL2     0.900000E-01   1.00800           0
      6536 MEMB     49       POPC     C37      CTL2    -0.180000       12.0110           0
      6537 MEMB     49       POPC     H7X      HAL2     0.900000E-01   1.00800           0
      6538 MEMB     49       POPC     H7Y      HAL2     0.900000E-01   1.00800           0
      6539 MEMB     49       POPC     C38      CTL2    -0.180000       12.0110           0
      6540 MEMB     49       POPC     H8X      HAL2     0.900000E-01   1.00800           0
      6541 MEMB     49       POPC     H8Y      HAL2     0.900000E-01   1.00800           0
      6542 MEMB     49       POPC     C39      CTL2    -0.180000       12.0110           0
      6543 MEMB     49       POPC     H9X      HAL2     0.900000E-01   1.00800           0
      6544 MEMB     49       POPC     H9Y      HAL2     0.900000E-01   1.00800           0
      6545 MEMB     49       POPC     C310     CTL2    -0.180000       12.0110           0
      6546 MEMB     49       POPC     H10X     HAL2     0.900000E-01   1.00800           0
      6547 MEMB     49       POPC     H10Y     HAL2     0.900000E-01   1.00800           0
      6548 MEMB     49       POPC     C311     CTL2    -0.180000       12.0110           0
      6549 MEMB     49       POPC     H11X     HAL2     0.900000E-01   1.00800           0
      6550 MEMB     49       POPC     H11Y     HAL2     0.900000E-01   1.00800           0
      6551 MEMB     49       POPC     C312     CTL2    -0.180000       12.0110           0
      6552 MEMB     49       POPC     H12X     HAL2     0.900000E-01   1.00800           0
      6553 MEMB     49       POPC     H12Y     HAL2     0.900000E-01   1.00800           0
      6554 MEMB     49       POPC     C313     CTL2    -0.180000       12.0110           0
      6555 MEMB     49       POPC     H13X     HAL2     0.900000E-01   1.00800           0
      6556 MEMB     49       POPC     H13Y     HAL2     0.900000E-01   1.00800           0
      6557 MEMB     49       POPC     C314     CTL2    -0.180000       12.0110           0
      6558 MEMB     49       POPC     H14X     HAL2     0.900000E-01   1.00800           0
      6559 MEMB     49       POPC     H14Y     HAL2     0.900000E-01   1.00800           0
      6560 MEMB     49       POPC     C315     CTL2    -0.180000       12.0110           0
      6561 MEMB     49       POPC     H15X     HAL2     0.900000E-01   1.00800           0
      6562 MEMB     49       POPC     H15Y     HAL2     0.900000E-01   1.00800           0
      6563 MEMB     49       POPC     C316     CTL3    -0.270000       12.0110           0
      6564 MEMB     49       POPC     H16X     HAL3     0.900000E-01   1.00800           0
      6565 MEMB     49       POPC     H16Y     HAL3     0.900000E-01   1.00800           0
      6566 MEMB     49       POPC     H16Z     HAL3     0.900000E-01   1.00800           0
      6567 MEMB     50       POPC     N        NTL     -0.600000       14.0070           0
      6568 MEMB     50       POPC     C12      CTL2    -0.100000       12.0110           0
      6569 MEMB     50       POPC     H12A     HL       0.250000       1.00800           0
      6570 MEMB     50       POPC     H12B     HL       0.250000       1.00800           0
      6571 MEMB     50       POPC     C13      CTL5    -0.350000       12.0110           0
      6572 MEMB     50       POPC     H13A     HL       0.250000       1.00800           0
      6573 MEMB     50       POPC     H13B     HL       0.250000       1.00800           0
      6574 MEMB     50       POPC     H13C     HL       0.250000       1.00800           0
      6575 MEMB     50       POPC     C14      CTL5    -0.350000       12.0110           0
      6576 MEMB     50       POPC     H14A     HL       0.250000       1.00800           0
      6577 MEMB     50       POPC     H14B     HL       0.250000       1.00800           0
      6578 MEMB     50       POPC     H14C     HL       0.250000       1.00800           0
      6579 MEMB     50       POPC     C15      CTL5    -0.350000       12.0110           0
      6580 MEMB     50       POPC     H15A     HL       0.250000       1.00800           0
      6581 MEMB     50       POPC     H15B     HL       0.250000       1.00800           0
      6582 MEMB     50       POPC     H15C     HL       0.250000       1.00800           0
      6583 MEMB     50       POPC     C11      CTL2    -0.800000E-01   12.0110           0
      6584 MEMB     50       POPC     H11A     HAL2     0.900000E-01   1.00800           0
      6585 MEMB     50       POPC     H11B     HAL2     0.900000E-01   1.00800           0
      6586 MEMB     50       POPC     P        PL        1.50000       30.9740           0
      6587 MEMB     50       POPC     O13      O2L     -0.780000       15.9994           0
      6588 MEMB     50       POPC     O14      O2L     -0.780000       15.9994           0
      6589 MEMB     50       POPC     O12      OSLP    -0.570000       15.9994           0
      6590 MEMB     50       POPC     O11      OSLP    -0.570000       15.9994           0
      6591 MEMB     50       POPC     C1       CTL2    -0.800000E-01   12.0110           0
      6592 MEMB     50       POPC     HA       HAL2     0.900000E-01   1.00800           0
      6593 MEMB     50       POPC     HB       HAL2     0.900000E-01   1.00800           0
      6594 MEMB     50       POPC     C2       CTL1     0.170000       12.0110           0
      6595 MEMB     50       POPC     HS       HAL1     0.900000E-01   1.00800           0
      6596 MEMB     50       POPC     O21      OSL     -0.490000       15.9994           0
      6597 MEMB     50       POPC     C21      CL       0.900000       12.0110           0
      6598 MEMB     50       POPC     O22      OBL     -0.630000       15.9994           0
      6599 MEMB     50       POPC     C22      CTL2    -0.220000       12.0110           0
      6600 MEMB     50       POPC     H2R      HAL2     0.900000E-01   1.00800           0
      6601 MEMB     50       POPC     H2S      HAL2     0.900000E-01   1.00800           0
      6602 MEMB     50       POPC     C3       CTL2     0.800000E-01   12.0110           0
      6603 MEMB     50       POPC     HX       HAL2     0.900000E-01   1.00800           0
      6604 MEMB     50       POPC     HY       HAL2     0.900000E-01   1.00800           0
      6605 MEMB     50       POPC     O31      OSL     -0.490000       15.9994           0
      6606 MEMB     50       POPC     C31      CL       0.900000       12.0110           0
      6607 MEMB     50       POPC     O32      OBL     -0.630000       15.9994           0
      6608 MEMB     50       POPC     C32      CTL2    -0.220000       12.0110           0
      6609 MEMB     50       POPC     H2X      HAL2     0.900000E-01   1.00800           0
      6610 MEMB     50       POPC     H2Y      HAL2     0.900000E-01   1.00800           0
      6611 MEMB     50       POPC     C23      CTL2    -0.180000       12.0110           0
      6612 MEMB     50       POPC     H3R      HAL2     0.900000E-01   1.00800           0
      6613 MEMB     50       POPC     H3S      HAL2     0.900000E-01   1.00800           0
      6614 MEMB     50       POPC     C24      CTL2    -0.180000       12.0110           0
      6615 MEMB     50       POPC     H4R      HAL2     0.900000E-01   1.00800           0
      6616 MEMB     50       POPC     H4S      HAL2     0.900000E-01   1.00800           0
      6617 MEMB     50       POPC     C25      CTL2    -0.180000       12.0110           0
      6618 MEMB     50       POPC     H5R      HAL2     0.900000E-01   1.00800           0
      6619 MEMB     50       POPC     H5S      HAL2     0.900000E-01   1.00800           0
      6620 MEMB     50       POPC     C26      CTL2    -0.180000       12.0110           0
      6621 MEMB     50       POPC     H6R      HAL2     0.900000E-01   1.00800           0
      6622 MEMB     50       POPC     H6S      HAL2     0.900000E-01   1.00800           0
      6623 MEMB     50       POPC     C27      CTL2    -0.180000       12.0110           0
      6624 MEMB     50       POPC     H7R      HAL2     0.900000E-01   1.00800           0
      6625 MEMB     50       POPC     H7S      HAL2     0.900000E-01   1.00800           0
      6626 MEMB     50       POPC     C28      CTL2    -0.180000       12.0110           0
      6627 MEMB     50       POPC     H8R      HAL2     0.900000E-01   1.00800           0
      6628 MEMB     50       POPC     H8S      HAL2     0.900000E-01   1.00800           0
      6629 MEMB     50       POPC     C29      CEL1    -0.150000       12.0110           0
      6630 MEMB     50       POPC     H91      HEL1     0.150000       1.00800           0
      6631 MEMB     50       POPC     C210     CEL1    -0.150000       12.0110           0
      6632 MEMB     50       POPC     H101     HEL1     0.150000       1.00800           0
      6633 MEMB     50       POPC     C211     CTL2    -0.180000       12.0110           0
      6634 MEMB     50       POPC     H11R     HAL2     0.900000E-01   1.00800           0
      6635 MEMB     50       POPC     H11S     HAL2     0.900000E-01   1.00800           0
      6636 MEMB     50       POPC     C212     CTL2    -0.180000       12.0110           0
      6637 MEMB     50       POPC     H12R     HAL2     0.900000E-01   1.00800           0
      6638 MEMB     50       POPC     H12S     HAL2     0.900000E-01   1.00800           0
      6639 MEMB     50       POPC     C213     CTL2    -0.180000       12.0110           0
      6640 MEMB     50       POPC     H13R     HAL2     0.900000E-01   1.00800           0
      6641 MEMB     50       POPC     H13S     HAL2     0.900000E-01   1.00800           0
      6642 MEMB     50       POPC     C214     CTL2    -0.180000       12.0110           0
      6643 MEMB     50       POPC     H14R     HAL2     0.900000E-01   1.00800           0
      6644 MEMB     50       POPC     H14S     HAL2     0.900000E-01   1.00800           0
      6645 MEMB     50       POPC     C215     CTL2    -0.180000       12.0110           0
      6646 MEMB     50       POPC     H15R     HAL2     0.900000E-01   1.00800           0
      6647 MEMB     50       POPC     H15S     HAL2     0.900000E-01   1.00800           0
      6648 MEMB     50       POPC     C216     CTL2    -0.180000       12.0110           0
      6649 MEMB     50       POPC     H16R     HAL2     0.900000E-01   1.00800           0
      6650 MEMB     50       POPC     H16S     HAL2     0.900000E-01   1.00800           0
      6651 MEMB     50       POPC     C217     CTL2    -0.180000       12.0110           0
      6652 MEMB     50       POPC     H17R     HAL2     0.900000E-01   1.00800           0
      6653 MEMB     50       POPC     H17S     HAL2     0.900000E-01   1.00800           0
      6654 MEMB     50       POPC     C218     CTL3    -0.270000       12.0110           0
      6655 MEMB     50       POPC     H18R     HAL3     0.900000E-01   1.00800           0
      6656 MEMB     50       POPC     H18S     HAL3     0.900000E-01   1.00800           0
      6657 MEMB     50       POPC     H18T     HAL3     0.900000E-01   1.00800           0
      6658 MEMB     50       POPC     C33      CTL2    -0.180000       12.0110           0
      6659 MEMB     50       POPC     H3X      HAL2     0.900000E-01   1.00800           0
      6660 MEMB     50       POPC     H3Y      HAL2     0.900000E-01   1.00800           0
      6661 MEMB     50       POPC     C34      CTL2    -0.180000       12.0110           0
      6662 MEMB     50       POPC     H4X      HAL2     0.900000E-01   1.00800           0
      6663 MEMB     50       POPC     H4Y      HAL2     0.900000E-01   1.00800           0
      6664 MEMB     50       POPC     C35      CTL2    -0.180000       12.0110           0
      6665 MEMB     50       POPC     H5X      HAL2     0.900000E-01   1.00800           0
      6666 MEMB     50       POPC     H5Y      HAL2     0.900000E-01   1.00800           0
      6667 MEMB     50       POPC     C36      CTL2    -0.180000       12.0110           0
      6668 MEMB     50       POPC     H6X      HAL2     0.900000E-01   1.00800           0
      6669 MEMB     50       POPC     H6Y      HAL2     0.900000E-01   1.00800           0
      6670 MEMB     50       POPC     C37      CTL2    -0.180000       12.0110           0
      6671 MEMB     50       POPC     H7X      HAL2     0.900000E-01   1.00800           0
      6672 MEMB     50       POPC     H7Y      HAL2     0.900000E-01   1.00800           0
      6673 MEMB     50       POPC     C38      CTL2    -0.180000       12.0110           0
      6674 MEMB     50       POPC     H8X      HAL2     0.900000E-01   1.00800           0
      6675 MEMB     50       POPC     H8Y      HAL2     0.900000E-01   1.00800           0
      6676 MEMB     50       POPC     C39      CTL2    -0.180000       12.0110           0
      6677 MEMB     50       POPC     H9X      HAL2     0.900000E-01   1.00800           0
      6678 MEMB     50       POPC     H9Y      HAL2     0.900000E-01   1.00800           0
      6679 MEMB     50       POPC     C310     CTL2    -0.180000       12.0110           0
      6680 MEMB     50       POPC     H10X     HAL2     0.900000E-01   1.00800           0
      6681 MEMB     50       POPC     H10Y     HAL2     0.900000E-01   1.00800           0
      6682 MEMB     50       POPC     C311     CTL2    -0.180000       12.0110           0
      6683 MEMB     50       POPC     H11X     HAL2     0.900000E-01   1.00800           0
      6684 MEMB     50       POPC     H11Y     HAL2     0.900000E-01   1.00800           0
      6685 MEMB     50       POPC     C312     CTL2    -0.180000       12.0110           0
      6686 MEMB     50       POPC     H12X     HAL2     0.900000E-01   1.00800           0
      6687 MEMB     50       POPC     H12Y     HAL2     0.900000E-01   1.00800           0
      6688 MEMB     50       POPC     C313     CTL2    -0.180000       12.0110           0
      6689 MEMB     50       POPC     H13X     HAL2     0.900000E-01   1.00800           0
      6690 MEMB     50       POPC     H13Y     HAL2     0.900000E-01   1.00800           0
      6691 MEMB     50       POPC     C314     CTL2    -0.180000       12.0110           0
      6692 MEMB     50       POPC     H14X     HAL2     0.900000E-01   1.00800           0
      6693 MEMB     50       POPC     H14Y     HAL2     0.900000E-01   1.00800           0
      6694 MEMB     50       POPC     C315     CTL2    -0.180000       12.0110           0
      6695 MEMB     50       POPC     H15X     HAL2     0.900000E-01   1.00800           0
      6696 MEMB     50       POPC     H15Y     HAL2     0.900000E-01   1.00800           0
      6697 MEMB     50       POPC     C316     CTL3    -0.270000       12.0110           0
      6698 MEMB     50       POPC     H16X     HAL3     0.900000E-01   1.00800           0
      6699 MEMB     50       POPC     H16Y     HAL3     0.900000E-01   1.00800           0
      6700 MEMB     50       POPC     H16Z     HAL3     0.900000E-01   1.00800           0
      6701 MEMB     51       POPC     N        NTL     -0.600000       14.0070           0
      6702 MEMB     51       POPC     C12      CTL2    -0.100000       12.0110           0
      6703 MEMB     51       POPC     H12A     HL       0.250000       1.00800           0
      6704 MEMB     51       POPC     H12B     HL       0.250000       1.00800           0
      6705 MEMB     51       POPC     C13      CTL5    -0.350000       12.0110           0
      6706 MEMB     51       POPC     H13A     HL       0.250000       1.00800           0
      6707 MEMB     51       POPC     H13B     HL       0.250000       1.00800           0
      6708 MEMB     51       POPC     H13C     HL       0.250000       1.00800           0
      6709 MEMB     51       POPC     C14      CTL5    -0.350000       12.0110           0
      6710 MEMB     51       POPC     H14A     HL       0.250000       1.00800           0
      6711 MEMB     51       POPC     H14B     HL       0.250000       1.00800           0
      6712 MEMB     51       POPC     H14C     HL       0.250000       1.00800           0
      6713 MEMB     51       POPC     C15      CTL5    -0.350000       12.0110           0
      6714 MEMB     51       POPC     H15A     HL       0.250000       1.00800           0
      6715 MEMB     51       POPC     H15B     HL       0.250000       1.00800           0
      6716 MEMB     51       POPC     H15C     HL       0.250000       1.00800           0
      6717 MEMB     51       POPC     C11      CTL2    -0.800000E-01   12.0110           0
      6718 MEMB     51       POPC     H11A     HAL2     0.900000E-01   1.00800           0
      6719 MEMB     51       POPC     H11B     HAL2     0.900000E-01   1.00800           0
      6720 MEMB     51       POPC     P        PL        1.50000       30.9740           0
      6721 MEMB     51       POPC     O13      O2L     -0.780000       15.9994           0
      6722 MEMB     51       POPC     O14      O2L     -0.780000       15.9994           0
      6723 MEMB     51       POPC     O12      OSLP    -0.570000       15.9994           0
      6724 MEMB     51       POPC     O11      OSLP    -0.570000       15.9994           0
      6725 MEMB     51       POPC     C1       CTL2    -0.800000E-01   12.0110           0
      6726 MEMB     51       POPC     HA       HAL2     0.900000E-01   1.00800           0
      6727 MEMB     51       POPC     HB       HAL2     0.900000E-01   1.00800           0
      6728 MEMB     51       POPC     C2       CTL1     0.170000       12.0110           0
      6729 MEMB     51       POPC     HS       HAL1     0.900000E-01   1.00800           0
      6730 MEMB     51       POPC     O21      OSL     -0.490000       15.9994           0
      6731 MEMB     51       POPC     C21      CL       0.900000       12.0110           0
      6732 MEMB     51       POPC     O22      OBL     -0.630000       15.9994           0
      6733 MEMB     51       POPC     C22      CTL2    -0.220000       12.0110           0
      6734 MEMB     51       POPC     H2R      HAL2     0.900000E-01   1.00800           0
      6735 MEMB     51       POPC     H2S      HAL2     0.900000E-01   1.00800           0
      6736 MEMB     51       POPC     C3       CTL2     0.800000E-01   12.0110           0
      6737 MEMB     51       POPC     HX       HAL2     0.900000E-01   1.00800           0
      6738 MEMB     51       POPC     HY       HAL2     0.900000E-01   1.00800           0
      6739 MEMB     51       POPC     O31      OSL     -0.490000       15.9994           0
      6740 MEMB     51       POPC     C31      CL       0.900000       12.0110           0
      6741 MEMB     51       POPC     O32      OBL     -0.630000       15.9994           0
      6742 MEMB     51       POPC     C32      CTL2    -0.220000       12.0110           0
      6743 MEMB     51       POPC     H2X      HAL2     0.900000E-01   1.00800           0
      6744 MEMB     51       POPC     H2Y      HAL2     0.900000E-01   1.00800           0
      6745 MEMB     51       POPC     C23      CTL2    -0.180000       12.0110           0
      6746 MEMB     51       POPC     H3R      HAL2     0.900000E-01   1.00800           0
      6747 MEMB     51       POPC     H3S      HAL2     0.900000E-01   1.00800           0
      6748 MEMB     51       POPC     C24      CTL2    -0.180000       12.0110           0
      6749 MEMB     51       POPC     H4R      HAL2     0.900000E-01   1.00800           0
      6750 MEMB     51       POPC     H4S      HAL2     0.900000E-01   1.00800           0
      6751 MEMB     51       POPC     C25      CTL2    -0.180000       12.0110           0
      6752 MEMB     51       POPC     H5R      HAL2     0.900000E-01   1.00800           0
      6753 MEMB     51       POPC     H5S      HAL2     0.900000E-01   1.00800           0
      6754 MEMB     51       POPC     C26      CTL2    -0.180000       12.0110           0
      6755 MEMB     51       POPC     H6R      HAL2     0.900000E-01   1.00800           0
      6756 MEMB     51       POPC     H6S      HAL2     0.900000E-01   1.00800           0
      6757 MEMB     51       POPC     C27      CTL2    -0.180000       12.0110           0
      6758 MEMB     51       POPC     H7R      HAL2     0.900000E-01   1.00800           0
      6759 MEMB     51       POPC     H7S      HAL2     0.900000E-01   1.00800           0
      6760 MEMB     51       POPC     C28      CTL2    -0.180000       12.0110           0
      6761 MEMB     51       POPC     H8R      HAL2     0.900000E-01   1.00800           0
      6762 MEMB     51       POPC     H8S      HAL2     0.900000E-01   1.00800           0
      6763 MEMB     51       POPC     C29      CEL1    -0.150000       12.0110           0
      6764 MEMB     51       POPC     H91      HEL1     0.150000       1.00800           0
      6765 MEMB     51       POPC     C210     CEL1    -0.150000       12.0110           0
      6766 MEMB     51       POPC     H101     HEL1     0.150000       1.00800           0
      6767 MEMB     51       POPC     C211     CTL2    -0.180000       12.0110           0
      6768 MEMB     51       POPC     H11R     HAL2     0.900000E-01   1.00800           0
      6769 MEMB     51       POPC     H11S     HAL2     0.900000E-01   1.00800           0
      6770 MEMB     51       POPC     C212     CTL2    -0.180000       12.0110           0
      6771 MEMB     51       POPC     H12R     HAL2     0.900000E-01   1.00800           0
      6772 MEMB     51       POPC     H12S     HAL2     0.900000E-01   1.00800           0
      6773 MEMB     51       POPC     C213     CTL2    -0.180000       12.0110           0
      6774 MEMB     51       POPC     H13R     HAL2     0.900000E-01   1.00800           0
      6775 MEMB     51       POPC     H13S     HAL2     0.900000E-01   1.00800           0
      6776 MEMB     51       POPC     C214     CTL2    -0.180000       12.0110           0
      6777 MEMB     51       POPC     H14R     HAL2     0.900000E-01   1.00800           0
      6778 MEMB     51       POPC     H14S     HAL2     0.900000E-01   1.00800           0
      6779 MEMB     51       POPC     C215     CTL2    -0.180000       12.0110           0
      6780 MEMB     51       POPC     H15R     HAL2     0.900000E-01   1.00800           0
      6781 MEMB     51       POPC     H15S     HAL2     0.900000E-01   1.00800           0
      6782 MEMB     51       POPC     C216     CTL2    -0.180000       12.0110           0
      6783 MEMB     51       POPC     H16R     HAL2     0.900000E-01   1.00800           0
      6784 MEMB     51       POPC     H16S     HAL2     0.900000E-01   1.00800           0
      6785 MEMB     51       POPC     C217     CTL2    -0.180000       12.0110           0
      6786 MEMB     51       POPC     H17R     HAL2     0.900000E-01   1.00800           0
      6787 MEMB     51       POPC     H17S     HAL2     0.900000E-01   1.00800           0
      6788 MEMB     51       POPC     C218     CTL3    -0.270000       12.0110           0
      6789 MEMB     51       POPC     H18R     HAL3     0.900000E-01   1.00800           0
      6790 MEMB     51       POPC     H18S     HAL3     0.900000E-01   1.00800           0
      6791 MEMB     51       POPC     H18T     HAL3     0.900000E-01   1.00800           0
      6792 MEMB     51       POPC     C33      CTL2    -0.180000       12.0110           0
      6793 MEMB     51       POPC     H3X      HAL2     0.900000E-01   1.00800           0
      6794 MEMB     51       POPC     H3Y      HAL2     0.900000E-01   1.00800           0
      6795 MEMB     51       POPC     C34      CTL2    -0.180000       12.0110           0
      6796 MEMB     51       POPC     H4X      HAL2     0.900000E-01   1.00800           0
      6797 MEMB     51       POPC     H4Y      HAL2     0.900000E-01   1.00800           0
      6798 MEMB     51       POPC     C35      CTL2    -0.180000       12.0110           0
      6799 MEMB     51       POPC     H5X      HAL2     0.900000E-01   1.00800           0
      6800 MEMB     51       POPC     H5Y      HAL2     0.900000E-01   1.00800           0
      6801 MEMB     51       POPC     C36      CTL2    -0.180000       12.0110           0
      6802 MEMB     51       POPC     H6X      HAL2     0.900000E-01   1.00800           0
      6803 MEMB     51       POPC     H6Y      HAL2     0.900000E-01   1.00800           0
      6804 MEMB     51       POPC     C37      CTL2    -0.180000       12.0110           0
      6805 MEMB     51       POPC     H7X      HAL2     0.900000E-01   1.00800           0
      6806 MEMB     51       POPC     H7Y      HAL2     0.900000E-01   1.00800           0
      6807 MEMB     51       POPC     C38      CTL2    -0.180000       12.0110           0
      6808 MEMB     51       POPC     H8X      HAL2     0.900000E-01   1.00800           0
      6809 MEMB     51       POPC     H8Y      HAL2     0.900000E-01   1.00800           0
      6810 MEMB     51       POPC     C39      CTL2    -0.180000       12.0110           0
      6811 MEMB     51       POPC     H9X      HAL2     0.900000E-01   1.00800           0
      6812 MEMB     51       POPC     H9Y      HAL2     0.900000E-01   1.00800           0
      6813 MEMB     51       POPC     C310     CTL2    -0.180000       12.0110           0
      6814 MEMB     51       POPC     H10X     HAL2     0.900000E-01   1.00800           0
      6815 MEMB     51       POPC     H10Y     HAL2     0.900000E-01   1.00800           0
      6816 MEMB     51       POPC     C311     CTL2    -0.180000       12.0110           0
      6817 MEMB     51       POPC     H11X     HAL2     0.900000E-01   1.00800           0
      6818 MEMB     51       POPC     H11Y     HAL2     0.900000E-01   1.00800           0
      6819 MEMB     51       POPC     C312     CTL2    -0.180000       12.0110           0
      6820 MEMB     51       POPC     H12X     HAL2     0.900000E-01   1.00800           0
      6821 MEMB     51       POPC     H12Y     HAL2     0.900000E-01   1.00800           0
      6822 MEMB     51       POPC     C313     CTL2    -0.180000       12.0110           0
      6823 MEMB     51       POPC     H13X     HAL2     0.900000E-01   1.00800           0
      6824 MEMB     51       POPC     H13Y     HAL2     0.900000E-01   1.00800           0
      6825 MEMB     51       POPC     C314     CTL2    -0.180000       12.0110           0
      6826 MEMB     51       POPC     H14X     HAL2     0.900000E-01   1.00800           0
      6827 MEMB     51       POPC     H14Y     HAL2     0.900000E-01   1.00800           0
      6828 MEMB     51       POPC     C315     CTL2    -0.180000       12.0110           0
      6829 MEMB     51       POPC     H15X     HAL2     0.900000E-01   1.00800           0
      6830 MEMB     51       POPC     H15Y     HAL2     0.900000E-01   1.00800           0
      6831 MEMB     51       POPC     C316     CTL3    -0.270000       12.0110           0
      6832 MEMB     51       POPC     H16X     HAL3     0.900000E-01   1.00800           0
      6833 MEMB     51       POPC     H16Y     HAL3     0.900000E-01   1.00800           0
      6834 MEMB     51       POPC     H16Z     HAL3     0.900000E-01   1.00800           0
      6835 MEMB     52       POPC     N        NTL     -0.600000       14.0070           0
      6836 MEMB     52       POPC     C12      CTL2    -0.100000       12.0110           0
      6837 MEMB     52       POPC     H12A     HL       0.250000       1.00800           0
      6838 MEMB     52       POPC     H12B     HL       0.250000       1.00800           0
      6839 MEMB     52       POPC     C13      CTL5    -0.350000       12.0110           0
      6840 MEMB     52       POPC     H13A     HL       0.250000       1.00800           0
      6841 MEMB     52       POPC     H13B     HL       0.250000       1.00800           0
      6842 MEMB     52       POPC     H13C     HL       0.250000       1.00800           0
      6843 MEMB     52       POPC     C14      CTL5    -0.350000       12.0110           0
      6844 MEMB     52       POPC     H14A     HL       0.250000       1.00800           0
      6845 MEMB     52       POPC     H14B     HL       0.250000       1.00800           0
      6846 MEMB     52       POPC     H14C     HL       0.250000       1.00800           0
      6847 MEMB     52       POPC     C15      CTL5    -0.350000       12.0110           0
      6848 MEMB     52       POPC     H15A     HL       0.250000       1.00800           0
      6849 MEMB     52       POPC     H15B     HL       0.250000       1.00800           0
      6850 MEMB     52       POPC     H15C     HL       0.250000       1.00800           0
      6851 MEMB     52       POPC     C11      CTL2    -0.800000E-01   12.0110           0
      6852 MEMB     52       POPC     H11A     HAL2     0.900000E-01   1.00800           0
      6853 MEMB     52       POPC     H11B     HAL2     0.900000E-01   1.00800           0
      6854 MEMB     52       POPC     P        PL        1.50000       30.9740           0
      6855 MEMB     52       POPC     O13      O2L     -0.780000       15.9994           0
      6856 MEMB     52       POPC     O14      O2L     -0.780000       15.9994           0
      6857 MEMB     52       POPC     O12      OSLP    -0.570000       15.9994           0
      6858 MEMB     52       POPC     O11      OSLP    -0.570000       15.9994           0
      6859 MEMB     52       POPC     C1       CTL2    -0.800000E-01   12.0110           0
      6860 MEMB     52       POPC     HA       HAL2     0.900000E-01   1.00800           0
      6861 MEMB     52       POPC     HB       HAL2     0.900000E-01   1.00800           0
      6862 MEMB     52       POPC     C2       CTL1     0.170000       12.0110           0
      6863 MEMB     52       POPC     HS       HAL1     0.900000E-01   1.00800           0
      6864 MEMB     52       POPC     O21      OSL     -0.490000       15.9994           0
      6865 MEMB     52       POPC     C21      CL       0.900000       12.0110           0
      6866 MEMB     52       POPC     O22      OBL     -0.630000       15.9994           0
      6867 MEMB     52       POPC     C22      CTL2    -0.220000       12.0110           0
      6868 MEMB     52       POPC     H2R      HAL2     0.900000E-01   1.00800           0
      6869 MEMB     52       POPC     H2S      HAL2     0.900000E-01   1.00800           0
      6870 MEMB     52       POPC     C3       CTL2     0.800000E-01   12.0110           0
      6871 MEMB     52       POPC     HX       HAL2     0.900000E-01   1.00800           0
      6872 MEMB     52       POPC     HY       HAL2     0.900000E-01   1.00800           0
      6873 MEMB     52       POPC     O31      OSL     -0.490000       15.9994           0
      6874 MEMB     52       POPC     C31      CL       0.900000       12.0110           0
      6875 MEMB     52       POPC     O32      OBL     -0.630000       15.9994           0
      6876 MEMB     52       POPC     C32      CTL2    -0.220000       12.0110           0
      6877 MEMB     52       POPC     H2X      HAL2     0.900000E-01   1.00800           0
      6878 MEMB     52       POPC     H2Y      HAL2     0.900000E-01   1.00800           0
      6879 MEMB     52       POPC     C23      CTL2    -0.180000       12.0110           0
      6880 MEMB     52       POPC     H3R      HAL2     0.900000E-01   1.00800           0
      6881 MEMB     52       POPC     H3S      HAL2     0.900000E-01   1.00800           0
      6882 MEMB     52       POPC     C24      CTL2    -0.180000       12.0110           0
      6883 MEMB     52       POPC     H4R      HAL2     0.900000E-01   1.00800           0
      6884 MEMB     52       POPC     H4S      HAL2     0.900000E-01   1.00800           0
      6885 MEMB     52       POPC     C25      CTL2    -0.180000       12.0110           0
      6886 MEMB     52       POPC     H5R      HAL2     0.900000E-01   1.00800           0
      6887 MEMB     52       POPC     H5S      HAL2     0.900000E-01   1.00800           0
      6888 MEMB     52       POPC     C26      CTL2    -0.180000       12.0110           0
      6889 MEMB     52       POPC     H6R      HAL2     0.900000E-01   1.00800           0
      6890 MEMB     52       POPC     H6S      HAL2     0.900000E-01   1.00800           0
      6891 MEMB     52       POPC     C27      CTL2    -0.180000       12.0110           0
      6892 MEMB     52       POPC     H7R      HAL2     0.900000E-01   1.00800           0
      6893 MEMB     52       POPC     H7S      HAL2     0.900000E-01   1.00800           0
      6894 MEMB     52       POPC     C28      CTL2    -0.180000       12.0110           0
      6895 MEMB     52       POPC     H8R      HAL2     0.900000E-01   1.00800           0
      6896 MEMB     52       POPC     H8S      HAL2     0.900000E-01   1.00800           0
      6897 MEMB     52       POPC     C29      CEL1    -0.150000       12.0110           0
      6898 MEMB     52       POPC     H91      HEL1     0.150000       1.00800           0
      6899 MEMB     52       POPC     C210     CEL1    -0.150000       12.0110           0
      6900 MEMB     52       POPC     H101     HEL1     0.150000       1.00800           0
      6901 MEMB     52       POPC     C211     CTL2    -0.180000       12.0110           0
      6902 MEMB     52       POPC     H11R     HAL2     0.900000E-01   1.00800           0
      6903 MEMB     52       POPC     H11S     HAL2     0.900000E-01   1.00800           0
      6904 MEMB     52       POPC     C212     CTL2    -0.180000       12.0110           0
      6905 MEMB     52       POPC     H12R     HAL2     0.900000E-01   1.00800           0
      6906 MEMB     52       POPC     H12S     HAL2     0.900000E-01   1.00800           0
      6907 MEMB     52       POPC     C213     CTL2    -0.180000       12.0110           0
      6908 MEMB     52       POPC     H13R     HAL2     0.900000E-01   1.00800           0
      6909 MEMB     52       POPC     H13S     HAL2     0.900000E-01   1.00800           0
      6910 MEMB     52       POPC     C214     CTL2    -0.180000       12.0110           0
      6911 MEMB     52       POPC     H14R     HAL2     0.900000E-01   1.00800           0
      6912 MEMB     52       POPC     H14S     HAL2     0.900000E-01   1.00800           0
      6913 MEMB     52       POPC     C215     CTL2    -0.180000       12.0110           0
      6914 MEMB     52       POPC     H15R     HAL2     0.900000E-01   1.00800           0
      6915 MEMB     52       POPC     H15S     HAL2     0.900000E-01   1.00800           0
      6916 MEMB     52       POPC     C216     CTL2    -0.180000       12.0110           0
      6917 MEMB     52       POPC     H16R     HAL2     0.900000E-01   1.00800           0
      6918 MEMB     52       POPC     H16S     HAL2     0.900000E-01   1.00800           0
      6919 MEMB     52       POPC     C217     CTL2    -0.180000       12.0110           0
      6920 MEMB     52       POPC     H17R     HAL2     0.900000E-01   1.00800           0
      6921 MEMB     52       POPC     H17S     HAL2     0.900000E-01   1.00800           0
      6922 MEMB     52       POPC     C218     CTL3    -0.270000       12.0110           0
      6923 MEMB     52       POPC     H18R     HAL3     0.900000E-01   1.00800           0
      6924 MEMB     52       POPC     H18S     HAL3     0.900000E-01   1.00800           0
      6925 MEMB     52       POPC     H18T     HAL3     0.900000E-01   1.00800           0
      6926 MEMB     52       POPC     C33      CTL2    -0.180000       12.0110           0
      6927 MEMB     52       POPC     H3X      HAL2     0.900000E-01   1.00800           0
      6928 MEMB     52       POPC     H3Y      HAL2     0.900000E-01   1.00800           0
      6929 MEMB     52       POPC     C34      CTL2    -0.180000       12.0110           0
      6930 MEMB     52       POPC     H4X      HAL2     0.900000E-01   1.00800           0
      6931 MEMB     52       POPC     H4Y      HAL2     0.900000E-01   1.00800           0
      6932 MEMB     52       POPC     C35      CTL2    -0.180000       12.0110           0
      6933 MEMB     52       POPC     H5X      HAL2     0.900000E-01   1.00800           0
      6934 MEMB     52       POPC     H5Y      HAL2     0.900000E-01   1.00800           0
      6935 MEMB     52       POPC     C36      CTL2    -0.180000       12.0110           0
      6936 MEMB     52       POPC     H6X      HAL2     0.900000E-01   1.00800           0
      6937 MEMB     52       POPC     H6Y      HAL2     0.900000E-01   1.00800           0
      6938 MEMB     52       POPC     C37      CTL2    -0.180000       12.0110           0
      6939 MEMB     52       POPC     H7X      HAL2     0.900000E-01   1.00800           0
      6940 MEMB     52       POPC     H7Y      HAL2     0.900000E-01   1.00800           0
      6941 MEMB     52       POPC     C38      CTL2    -0.180000       12.0110           0
      6942 MEMB     52       POPC     H8X      HAL2     0.900000E-01   1.00800           0
      6943 MEMB     52       POPC     H8Y      HAL2     0.900000E-01   1.00800           0
      6944 MEMB     52       POPC     C39      CTL2    -0.180000       12.0110           0
      6945 MEMB     52       POPC     H9X      HAL2     0.900000E-01   1.00800           0
      6946 MEMB     52       POPC     H9Y      HAL2     0.900000E-01   1.00800           0
      6947 MEMB     52       POPC     C310     CTL2    -0.180000       12.0110           0
      6948 MEMB     52       POPC     H10X     HAL2     0.900000E-01   1.00800           0
      6949 MEMB     52       POPC     H10Y     HAL2     0.900000E-01   1.00800           0
      6950 MEMB     52       POPC     C311     CTL2    -0.180000       12.0110           0
      6951 MEMB     52       POPC     H11X     HAL2     0.900000E-01   1.00800           0
      6952 MEMB     52       POPC     H11Y     HAL2     0.900000E-01   1.00800           0
      6953 MEMB     52       POPC     C312     CTL2    -0.180000       12.0110           0
      6954 MEMB     52       POPC     H12X     HAL2     0.900000E-01   1.00800           0
      6955 MEMB     52       POPC     H12Y     HAL2     0.900000E-01   1.00800           0
      6956 MEMB     52       POPC     C313     CTL2    -0.180000       12.0110           0
      6957 MEMB     52       POPC     H13X     HAL2     0.900000E-01   1.00800           0
      6958 MEMB     52       POPC     H13Y     HAL2     0.900000E-01   1.00800           0
      6959 MEMB     52       POPC     C314     CTL2    -0.180000       12.0110           0
      6960 MEMB     52       POPC     H14X     HAL2     0.900000E-01   1.00800           0
      6961 MEMB     52       POPC     H14Y     HAL2     0.900000E-01   1.00800           0
      6962 MEMB     52       POPC     C315     CTL2    -0.180000       12.0110           0
      6963 MEMB     52       POPC     H15X     HAL2     0.900000E-01   1.00800           0
      6964 MEMB     52       POPC     H15Y     HAL2     0.900000E-01   1.00800           0
      6965 MEMB     52       POPC     C316     CTL3    -0.270000       12.0110           0
      6966 MEMB     52       POPC     H16X     HAL3     0.900000E-01   1.00800           0
      6967 MEMB     52       POPC     H16Y     HAL3     0.900000E-01   1.00800           0
      6968 MEMB     52       POPC     H16Z     HAL3     0.900000E-01   1.00800           0
      6969 MEMB     53       POPC     N        NTL     -0.600000       14.0070           0
      6970 MEMB     53       POPC     C12      CTL2    -0.100000       12.0110           0
      6971 MEMB     53       POPC     H12A     HL       0.250000       1.00800           0
      6972 MEMB     53       POPC     H12B     HL       0.250000       1.00800           0
      6973 MEMB     53       POPC     C13      CTL5    -0.350000       12.0110           0
      6974 MEMB     53       POPC     H13A     HL       0.250000       1.00800           0
      6975 MEMB     53       POPC     H13B     HL       0.250000       1.00800           0
      6976 MEMB     53       POPC     H13C     HL       0.250000       1.00800           0
      6977 MEMB     53       POPC     C14      CTL5    -0.350000       12.0110           0
      6978 MEMB     53       POPC     H14A     HL       0.250000       1.00800           0
      6979 MEMB     53       POPC     H14B     HL       0.250000       1.00800           0
      6980 MEMB     53       POPC     H14C     HL       0.250000       1.00800           0
      6981 MEMB     53       POPC     C15      CTL5    -0.350000       12.0110           0
      6982 MEMB     53       POPC     H15A     HL       0.250000       1.00800           0
      6983 MEMB     53       POPC     H15B     HL       0.250000       1.00800           0
      6984 MEMB     53       POPC     H15C     HL       0.250000       1.00800           0
      6985 MEMB     53       POPC     C11      CTL2    -0.800000E-01   12.0110           0
      6986 MEMB     53       POPC     H11A     HAL2     0.900000E-01   1.00800           0
      6987 MEMB     53       POPC     H11B     HAL2     0.900000E-01   1.00800           0
      6988 MEMB     53       POPC     P        PL        1.50000       30.9740           0
      6989 MEMB     53       POPC     O13      O2L     -0.780000       15.9994           0
      6990 MEMB     53       POPC     O14      O2L     -0.780000       15.9994           0
      6991 MEMB     53       POPC     O12      OSLP    -0.570000       15.9994           0
      6992 MEMB     53       POPC     O11      OSLP    -0.570000       15.9994           0
      6993 MEMB     53       POPC     C1       CTL2    -0.800000E-01   12.0110           0
      6994 MEMB     53       POPC     HA       HAL2     0.900000E-01   1.00800           0
      6995 MEMB     53       POPC     HB       HAL2     0.900000E-01   1.00800           0
      6996 MEMB     53       POPC     C2       CTL1     0.170000       12.0110           0
      6997 MEMB     53       POPC     HS       HAL1     0.900000E-01   1.00800           0
      6998 MEMB     53       POPC     O21      OSL     -0.490000       15.9994           0
      6999 MEMB     53       POPC     C21      CL       0.900000       12.0110           0
      7000 MEMB     53       POPC     O22      OBL     -0.630000       15.9994           0
      7001 MEMB     53       POPC     C22      CTL2    -0.220000       12.0110           0
      7002 MEMB     53       POPC     H2R      HAL2     0.900000E-01   1.00800           0
      7003 MEMB     53       POPC     H2S      HAL2     0.900000E-01   1.00800           0
      7004 MEMB     53       POPC     C3       CTL2     0.800000E-01   12.0110           0
      7005 MEMB     53       POPC     HX       HAL2     0.900000E-01   1.00800           0
      7006 MEMB     53       POPC     HY       HAL2     0.900000E-01   1.00800           0
      7007 MEMB     53       POPC     O31      OSL     -0.490000       15.9994           0
      7008 MEMB     53       POPC     C31      CL       0.900000       12.0110           0
      7009 MEMB     53       POPC     O32      OBL     -0.630000       15.9994           0
      7010 MEMB     53       POPC     C32      CTL2    -0.220000       12.0110           0
      7011 MEMB     53       POPC     H2X      HAL2     0.900000E-01   1.00800           0
      7012 MEMB     53       POPC     H2Y      HAL2     0.900000E-01   1.00800           0
      7013 MEMB     53       POPC     C23      CTL2    -0.180000       12.0110           0
      7014 MEMB     53       POPC     H3R      HAL2     0.900000E-01   1.00800           0
      7015 MEMB     53       POPC     H3S      HAL2     0.900000E-01   1.00800           0
      7016 MEMB     53       POPC     C24      CTL2    -0.180000       12.0110           0
      7017 MEMB     53       POPC     H4R      HAL2     0.900000E-01   1.00800           0
      7018 MEMB     53       POPC     H4S      HAL2     0.900000E-01   1.00800           0
      7019 MEMB     53       POPC     C25      CTL2    -0.180000       12.0110           0
      7020 MEMB     53       POPC     H5R      HAL2     0.900000E-01   1.00800           0
      7021 MEMB     53       POPC     H5S      HAL2     0.900000E-01   1.00800           0
      7022 MEMB     53       POPC     C26      CTL2    -0.180000       12.0110           0
      7023 MEMB     53       POPC     H6R      HAL2     0.900000E-01   1.00800           0
      7024 MEMB     53       POPC     H6S      HAL2     0.900000E-01   1.00800           0
      7025 MEMB     53       POPC     C27      CTL2    -0.180000       12.0110           0
      7026 MEMB     53       POPC     H7R      HAL2     0.900000E-01   1.00800           0
      7027 MEMB     53       POPC     H7S      HAL2     0.900000E-01   1.00800           0
      7028 MEMB     53       POPC     C28      CTL2    -0.180000       12.0110           0
      7029 MEMB     53       POPC     H8R      HAL2     0.900000E-01   1.00800           0
      7030 MEMB     53       POPC     H8S      HAL2     0.900000E-01   1.00800           0
      7031 MEMB     53       POPC     C29      CEL1    -0.150000       12.0110           0
      7032 MEMB     53       POPC     H91      HEL1     0.150000       1.00800           0
      7033 MEMB     53       POPC     C210     CEL1    -0.150000       12.0110           0
      7034 MEMB     53       POPC     H101     HEL1     0.150000       1.00800           0
      7035 MEMB     53       POPC     C211     CTL2    -0.180000       12.0110           0
      7036 MEMB     53       POPC     H11R     HAL2     0.900000E-01   1.00800           0
      7037 MEMB     53       POPC     H11S     HAL2     0.900000E-01   1.00800           0
      7038 MEMB     53       POPC     C212     CTL2    -0.180000       12.0110           0
      7039 MEMB     53       POPC     H12R     HAL2     0.900000E-01   1.00800           0
      7040 MEMB     53       POPC     H12S     HAL2     0.900000E-01   1.00800           0
      7041 MEMB     53       POPC     C213     CTL2    -0.180000       12.0110           0
      7042 MEMB     53       POPC     H13R     HAL2     0.900000E-01   1.00800           0
      7043 MEMB     53       POPC     H13S     HAL2     0.900000E-01   1.00800           0
      7044 MEMB     53       POPC     C214     CTL2    -0.180000       12.0110           0
      7045 MEMB     53       POPC     H14R     HAL2     0.900000E-01   1.00800           0
      7046 MEMB     53       POPC     H14S     HAL2     0.900000E-01   1.00800           0
      7047 MEMB     53       POPC     C215     CTL2    -0.180000       12.0110           0
      7048 MEMB     53       POPC     H15R     HAL2     0.900000E-01   1.00800           0
      7049 MEMB     53       POPC     H15S     HAL2     0.900000E-01   1.00800           0
      7050 MEMB     53       POPC     C216     CTL2    -0.180000       12.0110           0
      7051 MEMB     53       POPC     H16R     HAL2     0.900000E-01   1.00800           0
      7052 MEMB     53       POPC     H16S     HAL2     0.900000E-01   1.00800           0
      7053 MEMB     53       POPC     C217     CTL2    -0.180000       12.0110           0
      7054 MEMB     53       POPC     H17R     HAL2     0.900000E-01   1.00800           0
      7055 MEMB     53       POPC     H17S     HAL2     0.900000E-01   1.00800           0
      7056 MEMB     53       POPC     C218     CTL3    -0.270000       12.0110           0
      7057 MEMB     53       POPC     H18R     HAL3     0.900000E-01   1.00800           0
      7058 MEMB     53       POPC     H18S     HAL3     0.900000E-01   1.00800           0
      7059 MEMB     53       POPC     H18T     HAL3     0.900000E-01   1.00800           0
      7060 MEMB     53       POPC     C33      CTL2    -0.180000       12.0110           0
      7061 MEMB     53       POPC     H3X      HAL2     0.900000E-01   1.00800           0
      7062 MEMB     53       POPC     H3Y      HAL2     0.900000E-01   1.00800           0
      7063 MEMB     53       POPC     C34      CTL2    -0.180000       12.0110           0
      7064 MEMB     53       POPC     H4X      HAL2     0.900000E-01   1.00800           0
      7065 MEMB     53       POPC     H4Y      HAL2     0.900000E-01   1.00800           0
      7066 MEMB     53       POPC     C35      CTL2    -0.180000       12.0110           0
      7067 MEMB     53       POPC     H5X      HAL2     0.900000E-01   1.00800           0
      7068 MEMB     53       POPC     H5Y      HAL2     0.900000E-01   1.00800           0
      7069 MEMB     53       POPC     C36      CTL2    -0.180000       12.0110           0
      7070 MEMB     53       POPC     H6X      HAL2     0.900000E-01   1.00800           0
      7071 MEMB     53       POPC     H6Y      HAL2     0.900000E-01   1.00800           0
      7072 MEMB     53       POPC     C37      CTL2    -0.180000       12.0110           0
      7073 MEMB     53       POPC     H7X      HAL2     0.900000E-01   1.00800           0
      7074 MEMB     53       POPC     H7Y      HAL2     0.900000E-01   1.00800           0
      7075 MEMB     53       POPC     C38      CTL2    -0.180000       12.0110           0
      7076 MEMB     53       POPC     H8X      HAL2     0.900000E-01   1.00800           0
      7077 MEMB     53       POPC     H8Y      HAL2     0.900000E-01   1.00800           0
      7078 MEMB     53       POPC     C39      CTL2    -0.180000       12.0110           0
      7079 MEMB     53       POPC     H9X      HAL2     0.900000E-01   1.00800           0
      7080 MEMB     53       POPC     H9Y      HAL2     0.900000E-01   1.00800           0
      7081 MEMB     53       POPC     C310     CTL2    -0.180000       12.0110           0
      7082 MEMB     53       POPC     H10X     HAL2     0.900000E-01   1.00800           0
      7083 MEMB     53       POPC     H10Y     HAL2     0.900000E-01   1.00800           0
      7084 MEMB     53       POPC     C311     CTL2    -0.180000       12.0110           0
      7085 MEMB     53       POPC     H11X     HAL2     0.900000E-01   1.00800           0
      7086 MEMB     53       POPC     H11Y     HAL2     0.900000E-01   1.00800           0
      7087 MEMB     53       POPC     C312     CTL2    -0.180000       12.0110           0
      7088 MEMB     53       POPC     H12X     HAL2     0.900000E-01   1.00800           0
      7089 MEMB     53       POPC     H12Y     HAL2     0.900000E-01   1.00800           0
      7090 MEMB     53       POPC     C313     CTL2    -0.180000       12.0110           0
      7091 MEMB     53       POPC     H13X     HAL2     0.900000E-01   1.00800           0
      7092 MEMB     53       POPC     H13Y     HAL2     0.900000E-01   1.00800           0
      7093 MEMB     53       POPC     C314     CTL2    -0.180000       12.0110           0
      7094 MEMB     53       POPC     H14X     HAL2     0.900000E-01   1.00800           0
      7095 MEMB     53       POPC     H14Y     HAL2     0.900000E-01   1.00800           0
      7096 MEMB     53       POPC     C315     CTL2    -0.180000       12.0110           0
      7097 MEMB     53       POPC     H15X     HAL2     0.900000E-01   1.00800           0
      7098 MEMB     53       POPC     H15Y     HAL2     0.900000E-01   1.00800           0
      7099 MEMB     53       POPC     C316     CTL3    -0.270000       12.0110           0
      7100 MEMB     53       POPC     H16X     HAL3     0.900000E-01   1.00800           0
      7101 MEMB     53       POPC     H16Y     HAL3     0.900000E-01   1.00800           0
      7102 MEMB     53       POPC     H16Z     HAL3     0.900000E-01   1.00800           0
      7103 MEMB     54       POPC     N        NTL     -0.600000       14.0070           0
      7104 MEMB     54       POPC     C12      CTL2    -0.100000       12.0110           0
      7105 MEMB     54       POPC     H12A     HL       0.250000       1.00800           0
      7106 MEMB     54       POPC     H12B     HL       0.250000       1.00800           0
      7107 MEMB     54       POPC     C13      CTL5    -0.350000       12.0110           0
      7108 MEMB     54       POPC     H13A     HL       0.250000       1.00800           0
      7109 MEMB     54       POPC     H13B     HL       0.250000       1.00800           0
      7110 MEMB     54       POPC     H13C     HL       0.250000       1.00800           0
      7111 MEMB     54       POPC     C14      CTL5    -0.350000       12.0110           0
      7112 MEMB     54       POPC     H14A     HL       0.250000       1.00800           0
      7113 MEMB     54       POPC     H14B     HL       0.250000       1.00800           0
      7114 MEMB     54       POPC     H14C     HL       0.250000       1.00800           0
      7115 MEMB     54       POPC     C15      CTL5    -0.350000       12.0110           0
      7116 MEMB     54       POPC     H15A     HL       0.250000       1.00800           0
      7117 MEMB     54       POPC     H15B     HL       0.250000       1.00800           0
      7118 MEMB     54       POPC     H15C     HL       0.250000       1.00800           0
      7119 MEMB     54       POPC     C11      CTL2    -0.800000E-01   12.0110           0
      7120 MEMB     54       POPC     H11A     HAL2     0.900000E-01   1.00800           0
      7121 MEMB     54       POPC     H11B     HAL2     0.900000E-01   1.00800           0
      7122 MEMB     54       POPC     P        PL        1.50000       30.9740           0
      7123 MEMB     54       POPC     O13      O2L     -0.780000       15.9994           0
      7124 MEMB     54       POPC     O14      O2L     -0.780000       15.9994           0
      7125 MEMB     54       POPC     O12      OSLP    -0.570000       15.9994           0
      7126 MEMB     54       POPC     O11      OSLP    -0.570000       15.9994           0
      7127 MEMB     54       POPC     C1       CTL2    -0.800000E-01   12.0110           0
      7128 MEMB     54       POPC     HA       HAL2     0.900000E-01   1.00800           0
      7129 MEMB     54       POPC     HB       HAL2     0.900000E-01   1.00800           0
      7130 MEMB     54       POPC     C2       CTL1     0.170000       12.0110           0
      7131 MEMB     54       POPC     HS       HAL1     0.900000E-01   1.00800           0
      7132 MEMB     54       POPC     O21      OSL     -0.490000       15.9994           0
      7133 MEMB     54       POPC     C21      CL       0.900000       12.0110           0
      7134 MEMB     54       POPC     O22      OBL     -0.630000       15.9994           0
      7135 MEMB     54       POPC     C22      CTL2    -0.220000       12.0110           0
      7136 MEMB     54       POPC     H2R      HAL2     0.900000E-01   1.00800           0
      7137 MEMB     54       POPC     H2S      HAL2     0.900000E-01   1.00800           0
      7138 MEMB     54       POPC     C3       CTL2     0.800000E-01   12.0110           0
      7139 MEMB     54       POPC     HX       HAL2     0.900000E-01   1.00800           0
      7140 MEMB     54       POPC     HY       HAL2     0.900000E-01   1.00800           0
      7141 MEMB     54       POPC     O31      OSL     -0.490000       15.9994           0
      7142 MEMB     54       POPC     C31      CL       0.900000       12.0110           0
      7143 MEMB     54       POPC     O32      OBL     -0.630000       15.9994           0
      7144 MEMB     54       POPC     C32      CTL2    -0.220000       12.0110           0
      7145 MEMB     54       POPC     H2X      HAL2     0.900000E-01   1.00800           0
      7146 MEMB     54       POPC     H2Y      HAL2     0.900000E-01   1.00800           0
      7147 MEMB     54       POPC     C23      CTL2    -0.180000       12.0110           0
      7148 MEMB     54       POPC     H3R      HAL2     0.900000E-01   1.00800           0
      7149 MEMB     54       POPC     H3S      HAL2     0.900000E-01   1.00800           0
      7150 MEMB     54       POPC     C24      CTL2    -0.180000       12.0110           0
      7151 MEMB     54       POPC     H4R      HAL2     0.900000E-01   1.00800           0
      7152 MEMB     54       POPC     H4S      HAL2     0.900000E-01   1.00800           0
      7153 MEMB     54       POPC     C25      CTL2    -0.180000       12.0110           0
      7154 MEMB     54       POPC     H5R      HAL2     0.900000E-01   1.00800           0
      7155 MEMB     54       POPC     H5S      HAL2     0.900000E-01   1.00800           0
      7156 MEMB     54       POPC     C26      CTL2    -0.180000       12.0110           0
      7157 MEMB     54       POPC     H6R      HAL2     0.900000E-01   1.00800           0
      7158 MEMB     54       POPC     H6S      HAL2     0.900000E-01   1.00800           0
      7159 MEMB     54       POPC     C27      CTL2    -0.180000       12.0110           0
      7160 MEMB     54       POPC     H7R      HAL2     0.900000E-01   1.00800           0
      7161 MEMB     54       POPC     H7S      HAL2     0.900000E-01   1.00800           0
      7162 MEMB     54       POPC     C28      CTL2    -0.180000       12.0110           0
      7163 MEMB     54       POPC     H8R      HAL2     0.900000E-01   1.00800           0
      7164 MEMB     54       POPC     H8S      HAL2     0.900000E-01   1.00800           0
      7165 MEMB     54       POPC     C29      CEL1    -0.150000       12.0110           0
      7166 MEMB     54       POPC     H91      HEL1     0.150000       1.00800           0
      7167 MEMB     54       POPC     C210     CEL1    -0.150000       12.0110           0
      7168 MEMB     54       POPC     H101     HEL1     0.150000       1.00800           0
      7169 MEMB     54       POPC     C211     CTL2    -0.180000       12.0110           0
      7170 MEMB     54       POPC     H11R     HAL2     0.900000E-01   1.00800           0
      7171 MEMB     54       POPC     H11S     HAL2     0.900000E-01   1.00800           0
      7172 MEMB     54       POPC     C212     CTL2    -0.180000       12.0110           0
      7173 MEMB     54       POPC     H12R     HAL2     0.900000E-01   1.00800           0
      7174 MEMB     54       POPC     H12S     HAL2     0.900000E-01   1.00800           0
      7175 MEMB     54       POPC     C213     CTL2    -0.180000       12.0110           0
      7176 MEMB     54       POPC     H13R     HAL2     0.900000E-01   1.00800           0
      7177 MEMB     54       POPC     H13S     HAL2     0.900000E-01   1.00800           0
      7178 MEMB     54       POPC     C214     CTL2    -0.180000       12.0110           0
      7179 MEMB     54       POPC     H14R     HAL2     0.900000E-01   1.00800           0
      7180 MEMB     54       POPC     H14S     HAL2     0.900000E-01   1.00800           0
      7181 MEMB     54       POPC     C215     CTL2    -0.180000       12.0110           0
      7182 MEMB     54       POPC     H15R     HAL2     0.900000E-01   1.00800           0
      7183 MEMB     54       POPC     H15S     HAL2     0.900000E-01   1.00800           0
      7184 MEMB     54       POPC     C216     CTL2    -0.180000       12.0110           0
      7185 MEMB     54       POPC     H16R     HAL2     0.900000E-01   1.00800           0
      7186 MEMB     54       POPC     H16S     HAL2     0.900000E-01   1.00800           0
      7187 MEMB     54       POPC     C217     CTL2    -0.180000       12.0110           0
      7188 MEMB     54       POPC     H17R     HAL2     0.900000E-01   1.00800           0
      7189 MEMB     54       POPC     H17S     HAL2     0.900000E-01   1.00800           0
      7190 MEMB     54       POPC     C218     CTL3    -0.270000       12.0110           0
      7191 MEMB     54       POPC     H18R     HAL3     0.900000E-01   1.00800           0
      7192 MEMB     54       POPC     H18S     HAL3     0.900000E-01   1.00800           0
      7193 MEMB     54       POPC     H18T     HAL3     0.900000E-01   1.00800           0
      7194 MEMB     54       POPC     C33      CTL2    -0.180000       12.0110           0
      7195 MEMB     54       POPC     H3X      HAL2     0.900000E-01   1.00800           0
      7196 MEMB     54       POPC     H3Y      HAL2     0.900000E-01   1.00800           0
      7197 MEMB     54       POPC     C34      CTL2    -0.180000       12.0110           0
      7198 MEMB     54       POPC     H4X      HAL2     0.900000E-01   1.00800           0
      7199 MEMB     54       POPC     H4Y      HAL2     0.900000E-01   1.00800           0
      7200 MEMB     54       POPC     C35      CTL2    -0.180000       12.0110           0
      7201 MEMB     54       POPC     H5X      HAL2     0.900000E-01   1.00800           0
      7202 MEMB     54       POPC     H5Y      HAL2     0.900000E-01   1.00800           0
      7203 MEMB     54       POPC     C36      CTL2    -0.180000       12.0110           0
      7204 MEMB     54       POPC     H6X      HAL2     0.900000E-01   1.00800           0
      7205 MEMB     54       POPC     H6Y      HAL2     0.900000E-01   1.00800           0
      7206 MEMB     54       POPC     C37      CTL2    -0.180000       12.0110           0
      7207 MEMB     54       POPC     H7X      HAL2     0.900000E-01   1.00800           0
      7208 MEMB     54       POPC     H7Y      HAL2     0.900000E-01   1.00800           0
      7209 MEMB     54       POPC     C38      CTL2    -0.180000       12.0110           0
      7210 MEMB     54       POPC     H8X      HAL2     0.900000E-01   1.00800           0
      7211 MEMB     54       POPC     H8Y      HAL2     0.900000E-01   1.00800           0
      7212 MEMB     54       POPC     C39      CTL2    -0.180000       12.0110           0
      7213 MEMB     54       POPC     H9X      HAL2     0.900000E-01   1.00800           0
      7214 MEMB     54       POPC     H9Y      HAL2     0.900000E-01   1.00800           0
      7215 MEMB     54       POPC     C310     CTL2    -0.180000       12.0110           0
      7216 MEMB     54       POPC     H10X     HAL2     0.900000E-01   1.00800           0
      7217 MEMB     54       POPC     H10Y     HAL2     0.900000E-01   1.00800           0
      7218 MEMB     54       POPC     C311     CTL2    -0.180000       12.0110           0
      7219 MEMB     54       POPC     H11X     HAL2     0.900000E-01   1.00800           0
      7220 MEMB     54       POPC     H11Y     HAL2     0.900000E-01   1.00800           0
      7221 MEMB     54       POPC     C312     CTL2    -0.180000       12.0110           0
      7222 MEMB     54       POPC     H12X     HAL2     0.900000E-01   1.00800           0
      7223 MEMB     54       POPC     H12Y     HAL2     0.900000E-01   1.00800           0
      7224 MEMB     54       POPC     C313     CTL2    -0.180000       12.0110           0
      7225 MEMB     54       POPC     H13X     HAL2     0.900000E-01   1.00800           0
      7226 MEMB     54       POPC     H13Y     HAL2     0.900000E-01   1.00800           0
      7227 MEMB     54       POPC     C314     CTL2    -0.180000       12.0110           0
      7228 MEMB     54       POPC     H14X     HAL2     0.900000E-01   1.00800           0
      7229 MEMB     54       POPC     H14Y     HAL2     0.900000E-01   1.00800           0
      7230 MEMB     54       POPC     C315     CTL2    -0.180000       12.0110           0
      7231 MEMB     54       POPC     H15X     HAL2     0.900000E-01   1.00800           0
      7232 MEMB     54       POPC     H15Y     HAL2     0.900000E-01   1.00800           0
      7233 MEMB     54       POPC     C316     CTL3    -0.270000       12.0110           0
      7234 MEMB     54       POPC     H16X     HAL3     0.900000E-01   1.00800           0
      7235 MEMB     54       POPC     H16Y     HAL3     0.900000E-01   1.00800           0
      7236 MEMB     54       POPC     H16Z     HAL3     0.900000E-01   1.00800           0
      7237 MEMB     55       POPC     N        NTL     -0.600000       14.0070           0
      7238 MEMB     55       POPC     C12      CTL2    -0.100000       12.0110           0
      7239 MEMB     55       POPC     H12A     HL       0.250000       1.00800           0
      7240 MEMB     55       POPC     H12B     HL       0.250000       1.00800           0
      7241 MEMB     55       POPC     C13      CTL5    -0.350000       12.0110           0
      7242 MEMB     55       POPC     H13A     HL       0.250000       1.00800           0
      7243 MEMB     55       POPC     H13B     HL       0.250000       1.00800           0
      7244 MEMB     55       POPC     H13C     HL       0.250000       1.00800           0
      7245 MEMB     55       POPC     C14      CTL5    -0.350000       12.0110           0
      7246 MEMB     55       POPC     H14A     HL       0.250000       1.00800           0
      7247 MEMB     55       POPC     H14B     HL       0.250000       1.00800           0
      7248 MEMB     55       POPC     H14C     HL       0.250000       1.00800           0
      7249 MEMB     55       POPC     C15      CTL5    -0.350000       12.0110           0
      7250 MEMB     55       POPC     H15A     HL       0.250000       1.00800           0
      7251 MEMB     55       POPC     H15B     HL       0.250000       1.00800           0
      7252 MEMB     55       POPC     H15C     HL       0.250000       1.00800           0
      7253 MEMB     55       POPC     C11      CTL2    -0.800000E-01   12.0110           0
      7254 MEMB     55       POPC     H11A     HAL2     0.900000E-01   1.00800           0
      7255 MEMB     55       POPC     H11B     HAL2     0.900000E-01   1.00800           0
      7256 MEMB     55       POPC     P        PL        1.50000       30.9740           0
      7257 MEMB     55       POPC     O13      O2L     -0.780000       15.9994           0
      7258 MEMB     55       POPC     O14      O2L     -0.780000       15.9994           0
      7259 MEMB     55       POPC     O12      OSLP    -0.570000       15.9994           0
      7260 MEMB     55       POPC     O11      OSLP    -0.570000       15.9994           0
      7261 MEMB     55       POPC     C1       CTL2    -0.800000E-01   12.0110           0
      7262 MEMB     55       POPC     HA       HAL2     0.900000E-01   1.00800           0
      7263 MEMB     55       POPC     HB       HAL2     0.900000E-01   1.00800           0
      7264 MEMB     55       POPC     C2       CTL1     0.170000       12.0110           0
      7265 MEMB     55       POPC     HS       HAL1     0.900000E-01   1.00800           0
      7266 MEMB     55       POPC     O21      OSL     -0.490000       15.9994           0
      7267 MEMB     55       POPC     C21      CL       0.900000       12.0110           0
      7268 MEMB     55       POPC     O22      OBL     -0.630000       15.9994           0
      7269 MEMB     55       POPC     C22      CTL2    -0.220000       12.0110           0
      7270 MEMB     55       POPC     H2R      HAL2     0.900000E-01   1.00800           0
      7271 MEMB     55       POPC     H2S      HAL2     0.900000E-01   1.00800           0
      7272 MEMB     55       POPC     C3       CTL2     0.800000E-01   12.0110           0
      7273 MEMB     55       POPC     HX       HAL2     0.900000E-01   1.00800           0
      7274 MEMB     55       POPC     HY       HAL2     0.900000E-01   1.00800           0
      7275 MEMB     55       POPC     O31      OSL     -0.490000       15.9994           0
      7276 MEMB     55       POPC     C31      CL       0.900000       12.0110           0
      7277 MEMB     55       POPC     O32      OBL     -0.630000       15.9994           0
      7278 MEMB     55       POPC     C32      CTL2    -0.220000       12.0110           0
      7279 MEMB     55       POPC     H2X      HAL2     0.900000E-01   1.00800           0
      7280 MEMB     55       POPC     H2Y      HAL2     0.900000E-01   1.00800           0
      7281 MEMB     55       POPC     C23      CTL2    -0.180000       12.0110           0
      7282 MEMB     55       POPC     H3R      HAL2     0.900000E-01   1.00800           0
      7283 MEMB     55       POPC     H3S      HAL2     0.900000E-01   1.00800           0
      7284 MEMB     55       POPC     C24      CTL2    -0.180000       12.0110           0
      7285 MEMB     55       POPC     H4R      HAL2     0.900000E-01   1.00800           0
      7286 MEMB     55       POPC     H4S      HAL2     0.900000E-01   1.00800           0
      7287 MEMB     55       POPC     C25      CTL2    -0.180000       12.0110           0
      7288 MEMB     55       POPC     H5R      HAL2     0.900000E-01   1.00800           0
      7289 MEMB     55       POPC     H5S      HAL2     0.900000E-01   1.00800           0
      7290 MEMB     55       POPC     C26      CTL2    -0.180000       12.0110           0
      7291 MEMB     55       POPC     H6R      HAL2     0.900000E-01   1.00800           0
      7292 MEMB     55       POPC     H6S      HAL2     0.900000E-01   1.00800           0
      7293 MEMB     55       POPC     C27      CTL2    -0.180000       12.0110           0
      7294 MEMB     55       POPC     H7R      HAL2     0.900000E-01   1.00800           0
      7295 MEMB     55       POPC     H7S      HAL2     0.900000E-01   1.00800           0
      7296 MEMB     55       POPC     C28      CTL2    -0.180000       12.0110           0
      7297 MEMB     55       POPC     H8R      HAL2     0.900000E-01   1.00800           0
      7298 MEMB     55       POPC     H8S      HAL2     0.900000E-01   1.00800           0
      7299 MEMB     55       POPC     C29      CEL1    -0.150000       12.0110           0
      7300 MEMB     55       POPC     H91      HEL1     0.150000       1.00800           0
      7301 MEMB     55       POPC     C210     CEL1    -0.150000       12.0110           0
      7302 MEMB     55       POPC     H101     HEL1     0.150000       1.00800           0
      7303 MEMB     55       POPC     C211     CTL2    -0.180000       12.0110           0
      7304 MEMB     55       POPC     H11R     HAL2     0.900000E-01   1.00800           0
      7305 MEMB     55       POPC     H11S     HAL2     0.900000E-01   1.00800           0
      7306 MEMB     55       POPC     C212     CTL2    -0.180000       12.0110           0
      7307 MEMB     55       POPC     H12R     HAL2     0.900000E-01   1.00800           0
      7308 MEMB     55       POPC     H12S     HAL2     0.900000E-01   1.00800           0
      7309 MEMB     55       POPC     C213     CTL2    -0.180000       12.0110           0
      7310 MEMB     55       POPC     H13R     HAL2     0.900000E-01   1.00800           0
      7311 MEMB     55       POPC     H13S     HAL2     0.900000E-01   1.00800           0
      7312 MEMB     55       POPC     C214     CTL2    -0.180000       12.0110           0
      7313 MEMB     55       POPC     H14R     HAL2     0.900000E-01   1.00800           0
      7314 MEMB     55       POPC     H14S     HAL2     0.900000E-01   1.00800           0
      7315 MEMB     55       POPC     C215     CTL2    -0.180000       12.0110           0
      7316 MEMB     55       POPC     H15R     HAL2     0.900000E-01   1.00800           0
      7317 MEMB     55       POPC     H15S     HAL2     0.900000E-01   1.00800           0
      7318 MEMB     55       POPC     C216     CTL2    -0.180000       12.0110           0
      7319 MEMB     55       POPC     H16R     HAL2     0.900000E-01   1.00800           0
      7320 MEMB     55       POPC     H16S     HAL2     0.900000E-01   1.00800           0
      7321 MEMB     55       POPC     C217     CTL2    -0.180000       12.0110           0
      7322 MEMB     55       POPC     H17R     HAL2     0.900000E-01   1.00800           0
      7323 MEMB     55       POPC     H17S     HAL2     0.900000E-01   1.00800           0
      7324 MEMB     55       POPC     C218     CTL3    -0.270000       12.0110           0
      7325 MEMB     55       POPC     H18R     HAL3     0.900000E-01   1.00800           0
      7326 MEMB     55       POPC     H18S     HAL3     0.900000E-01   1.00800           0
      7327 MEMB     55       POPC     H18T     HAL3     0.900000E-01   1.00800           0
      7328 MEMB     55       POPC     C33      CTL2    -0.180000       12.0110           0
      7329 MEMB     55       POPC     H3X      HAL2     0.900000E-01   1.00800           0
      7330 MEMB     55       POPC     H3Y      HAL2     0.900000E-01   1.00800           0
      7331 MEMB     55       POPC     C34      CTL2    -0.180000       12.0110           0
      7332 MEMB     55       POPC     H4X      HAL2     0.900000E-01   1.00800           0
      7333 MEMB     55       POPC     H4Y      HAL2     0.900000E-01   1.00800           0
      7334 MEMB     55       POPC     C35      CTL2    -0.180000       12.0110           0
      7335 MEMB     55       POPC     H5X      HAL2     0.900000E-01   1.00800           0
      7336 MEMB     55       POPC     H5Y      HAL2     0.900000E-01   1.00800           0
      7337 MEMB     55       POPC     C36      CTL2    -0.180000       12.0110           0
      7338 MEMB     55       POPC     H6X      HAL2     0.900000E-01   1.00800           0
      7339 MEMB     55       POPC     H6Y      HAL2     0.900000E-01   1.00800           0
      7340 MEMB     55       POPC     C37      CTL2    -0.180000       12.0110           0
      7341 MEMB     55       POPC     H7X      HAL2     0.900000E-01   1.00800           0
      7342 MEMB     55       POPC     H7Y      HAL2     0.900000E-01   1.00800           0
      7343 MEMB     55       POPC     C38      CTL2    -0.180000       12.0110           0
      7344 MEMB     55       POPC     H8X      HAL2     0.900000E-01   1.00800           0
      7345 MEMB     55       POPC     H8Y      HAL2     0.900000E-01   1.00800           0
      7346 MEMB     55       POPC     C39      CTL2    -0.180000       12.0110           0
      7347 MEMB     55       POPC     H9X      HAL2     0.900000E-01   1.00800           0
      7348 MEMB     55       POPC     H9Y      HAL2     0.900000E-01   1.00800           0
      7349 MEMB     55       POPC     C310     CTL2    -0.180000       12.0110           0
      7350 MEMB     55       POPC     H10X     HAL2     0.900000E-01   1.00800           0
      7351 MEMB     55       POPC     H10Y     HAL2     0.900000E-01   1.00800           0
      7352 MEMB     55       POPC     C311     CTL2    -0.180000       12.0110           0
      7353 MEMB     55       POPC     H11X     HAL2     0.900000E-01   1.00800           0
      7354 MEMB     55       POPC     H11Y     HAL2     0.900000E-01   1.00800           0
      7355 MEMB     55       POPC     C312     CTL2    -0.180000       12.0110           0
      7356 MEMB     55       POPC     H12X     HAL2     0.900000E-01   1.00800           0
      7357 MEMB     55       POPC     H12Y     HAL2     0.900000E-01   1.00800           0
      7358 MEMB     55       POPC     C313     CTL2    -0.180000       12.0110           0
      7359 MEMB     55       POPC     H13X     HAL2     0.900000E-01   1.00800           0
      7360 MEMB     55       POPC     H13Y     HAL2     0.900000E-01   1.00800           0
      7361 MEMB     55       POPC     C314     CTL2    -0.180000       12.0110           0
      7362 MEMB     55       POPC     H14X     HAL2     0.900000E-01   1.00800           0
      7363 MEMB     55       POPC     H14Y     HAL2     0.900000E-01   1.00800           0
      7364 MEMB     55       POPC     C315     CTL2    -0.180000       12.0110           0
      7365 MEMB     55       POPC     H15X     HAL2     0.900000E-01   1.00800           0
      7366 MEMB     55       POPC     H15Y     HAL2     0.900000E-01   1.00800           0
      7367 MEMB     55       POPC     C316     CTL3    -0.270000       12.0110           0
      7368 MEMB     55       POPC     H16X     HAL3     0.900000E-01   1.00800           0
      7369 MEMB     55       POPC     H16Y     HAL3     0.900000E-01   1.00800           0
      7370 MEMB     55       POPC     H16Z     HAL3     0.900000E-01   1.00800           0
      7371 MEMB     56       POPC     N        NTL     -0.600000       14.0070           0
      7372 MEMB     56       POPC     C12      CTL2    -0.100000       12.0110           0
      7373 MEMB     56       POPC     H12A     HL       0.250000       1.00800           0
      7374 MEMB     56       POPC     H12B     HL       0.250000       1.00800           0
      7375 MEMB     56       POPC     C13      CTL5    -0.350000       12.0110           0
      7376 MEMB     56       POPC     H13A     HL       0.250000       1.00800           0
      7377 MEMB     56       POPC     H13B     HL       0.250000       1.00800           0
      7378 MEMB     56       POPC     H13C     HL       0.250000       1.00800           0
      7379 MEMB     56       POPC     C14      CTL5    -0.350000       12.0110           0
      7380 MEMB     56       POPC     H14A     HL       0.250000       1.00800           0
      7381 MEMB     56       POPC     H14B     HL       0.250000       1.00800           0
      7382 MEMB     56       POPC     H14C     HL       0.250000       1.00800           0
      7383 MEMB     56       POPC     C15      CTL5    -0.350000       12.0110           0
      7384 MEMB     56       POPC     H15A     HL       0.250000       1.00800           0
      7385 MEMB     56       POPC     H15B     HL       0.250000       1.00800           0
      7386 MEMB     56       POPC     H15C     HL       0.250000       1.00800           0
      7387 MEMB     56       POPC     C11      CTL2    -0.800000E-01   12.0110           0
      7388 MEMB     56       POPC     H11A     HAL2     0.900000E-01   1.00800           0
      7389 MEMB     56       POPC     H11B     HAL2     0.900000E-01   1.00800           0
      7390 MEMB     56       POPC     P        PL        1.50000       30.9740           0
      7391 MEMB     56       POPC     O13      O2L     -0.780000       15.9994           0
      7392 MEMB     56       POPC     O14      O2L     -0.780000       15.9994           0
      7393 MEMB     56       POPC     O12      OSLP    -0.570000       15.9994           0
      7394 MEMB     56       POPC     O11      OSLP    -0.570000       15.9994           0
      7395 MEMB     56       POPC     C1       CTL2    -0.800000E-01   12.0110           0
      7396 MEMB     56       POPC     HA       HAL2     0.900000E-01   1.00800           0
      7397 MEMB     56       POPC     HB       HAL2     0.900000E-01   1.00800           0
      7398 MEMB     56       POPC     C2       CTL1     0.170000       12.0110           0
      7399 MEMB     56       POPC     HS       HAL1     0.900000E-01   1.00800           0
      7400 MEMB     56       POPC     O21      OSL     -0.490000       15.9994           0
      7401 MEMB     56       POPC     C21      CL       0.900000       12.0110           0
      7402 MEMB     56       POPC     O22      OBL     -0.630000       15.9994           0
      7403 MEMB     56       POPC     C22      CTL2    -0.220000       12.0110           0
      7404 MEMB     56       POPC     H2R      HAL2     0.900000E-01   1.00800           0
      7405 MEMB     56       POPC     H2S      HAL2     0.900000E-01   1.00800           0
      7406 MEMB     56       POPC     C3       CTL2     0.800000E-01   12.0110           0
      7407 MEMB     56       POPC     HX       HAL2     0.900000E-01   1.00800           0
      7408 MEMB     56       POPC     HY       HAL2     0.900000E-01   1.00800           0
      7409 MEMB     56       POPC     O31      OSL     -0.490000       15.9994           0
      7410 MEMB     56       POPC     C31      CL       0.900000       12.0110           0
      7411 MEMB     56       POPC     O32      OBL     -0.630000       15.9994           0
      7412 MEMB     56       POPC     C32      CTL2    -0.220000       12.0110           0
      7413 MEMB     56       POPC     H2X      HAL2     0.900000E-01   1.00800           0
      7414 MEMB     56       POPC     H2Y      HAL2     0.900000E-01   1.00800           0
      7415 MEMB     56       POPC     C23      CTL2    -0.180000       12.0110           0
      7416 MEMB     56       POPC     H3R      HAL2     0.900000E-01   1.00800           0
      7417 MEMB     56       POPC     H3S      HAL2     0.900000E-01   1.00800           0
      7418 MEMB     56       POPC     C24      CTL2    -0.180000       12.0110           0
      7419 MEMB     56       POPC     H4R      HAL2     0.900000E-01   1.00800           0
      7420 MEMB     56       POPC     H4S      HAL2     0.900000E-01   1.00800           0
      7421 MEMB     56       POPC     C25      CTL2    -0.180000       12.0110           0
      7422 MEMB     56       POPC     H5R      HAL2     0.900000E-01   1.00800           0
      7423 MEMB     56       POPC     H5S      HAL2     0.900000E-01   1.00800           0
      7424 MEMB     56       POPC     C26      CTL2    -0.180000       12.0110           0
      7425 MEMB     56       POPC     H6R      HAL2     0.900000E-01   1.00800           0
      7426 MEMB     56       POPC     H6S      HAL2     0.900000E-01   1.00800           0
      7427 MEMB     56       POPC     C27      CTL2    -0.180000       12.0110           0
      7428 MEMB     56       POPC     H7R      HAL2     0.900000E-01   1.00800           0
      7429 MEMB     56       POPC     H7S      HAL2     0.900000E-01   1.00800           0
      7430 MEMB     56       POPC     C28      CTL2    -0.180000       12.0110           0
      7431 MEMB     56       POPC     H8R      HAL2     0.900000E-01   1.00800           0
      7432 MEMB     56       POPC     H8S      HAL2     0.900000E-01   1.00800           0
      7433 MEMB     56       POPC     C29      CEL1    -0.150000       12.0110           0
      7434 MEMB     56       POPC     H91      HEL1     0.150000       1.00800           0
      7435 MEMB     56       POPC     C210     CEL1    -0.150000       12.0110           0
      7436 MEMB     56       POPC     H101     HEL1     0.150000       1.00800           0
      7437 MEMB     56       POPC     C211     CTL2    -0.180000       12.0110           0
      7438 MEMB     56       POPC     H11R     HAL2     0.900000E-01   1.00800           0
      7439 MEMB     56       POPC     H11S     HAL2     0.900000E-01   1.00800           0
      7440 MEMB     56       POPC     C212     CTL2    -0.180000       12.0110           0
      7441 MEMB     56       POPC     H12R     HAL2     0.900000E-01   1.00800           0
      7442 MEMB     56       POPC     H12S     HAL2     0.900000E-01   1.00800           0
      7443 MEMB     56       POPC     C213     CTL2    -0.180000       12.0110           0
      7444 MEMB     56       POPC     H13R     HAL2     0.900000E-01   1.00800           0
      7445 MEMB     56       POPC     H13S     HAL2     0.900000E-01   1.00800           0
      7446 MEMB     56       POPC     C214     CTL2    -0.180000       12.0110           0
      7447 MEMB     56       POPC     H14R     HAL2     0.900000E-01   1.00800           0
      7448 MEMB     56       POPC     H14S     HAL2     0.900000E-01   1.00800           0
      7449 MEMB     56       POPC     C215     CTL2    -0.180000       12.0110           0
      7450 MEMB     56       POPC     H15R     HAL2     0.900000E-01   1.00800           0
      7451 MEMB     56       POPC     H15S     HAL2     0.900000E-01   1.00800           0
      7452 MEMB     56       POPC     C216     CTL2    -0.180000       12.0110           0
      7453 MEMB     56       POPC     H16R     HAL2     0.900000E-01   1.00800           0
      7454 MEMB     56       POPC     H16S     HAL2     0.900000E-01   1.00800           0
      7455 MEMB     56       POPC     C217     CTL2    -0.180000       12.0110           0
      7456 MEMB     56       POPC     H17R     HAL2     0.900000E-01   1.00800           0
      7457 MEMB     56       POPC     H17S     HAL2     0.900000E-01   1.00800           0
      7458 MEMB     56       POPC     C218     CTL3    -0.270000       12.0110           0
      7459 MEMB     56       POPC     H18R     HAL3     0.900000E-01   1.00800           0
      7460 MEMB     56       POPC     H18S     HAL3     0.900000E-01   1.00800           0
      7461 MEMB     56       POPC     H18T     HAL3     0.900000E-01   1.00800           0
      7462 MEMB     56       POPC     C33      CTL2    -0.180000       12.0110           0
      7463 MEMB     56       POPC     H3X      HAL2     0.900000E-01   1.00800           0
      7464 MEMB     56       POPC     H3Y      HAL2     0.900000E-01   1.00800           0
      7465 MEMB     56       POPC     C34      CTL2    -0.180000       12.0110           0
      7466 MEMB     56       POPC     H4X      HAL2     0.900000E-01   1.00800           0
      7467 MEMB     56       POPC     H4Y      HAL2     0.900000E-01   1.00800           0
      7468 MEMB     56       POPC     C35      CTL2    -0.180000       12.0110           0
      7469 MEMB     56       POPC     H5X      HAL2     0.900000E-01   1.00800           0
      7470 MEMB     56       POPC     H5Y      HAL2     0.900000E-01   1.00800           0
      7471 MEMB     56       POPC     C36      CTL2    -0.180000       12.0110           0
      7472 MEMB     56       POPC     H6X      HAL2     0.900000E-01   1.00800           0
      7473 MEMB     56       POPC     H6Y      HAL2     0.900000E-01   1.00800           0
      7474 MEMB     56       POPC     C37      CTL2    -0.180000       12.0110           0
      7475 MEMB     56       POPC     H7X      HAL2     0.900000E-01   1.00800           0
      7476 MEMB     56       POPC     H7Y      HAL2     0.900000E-01   1.00800           0
      7477 MEMB     56       POPC     C38      CTL2    -0.180000       12.0110           0
      7478 MEMB     56       POPC     H8X      HAL2     0.900000E-01   1.00800           0
      7479 MEMB     56       POPC     H8Y      HAL2     0.900000E-01   1.00800           0
      7480 MEMB     56       POPC     C39      CTL2    -0.180000       12.0110           0
      7481 MEMB     56       POPC     H9X      HAL2     0.900000E-01   1.00800           0
      7482 MEMB     56       POPC     H9Y      HAL2     0.900000E-01   1.00800           0
      7483 MEMB     56       POPC     C310     CTL2    -0.180000       12.0110           0
      7484 MEMB     56       POPC     H10X     HAL2     0.900000E-01   1.00800           0
      7485 MEMB     56       POPC     H10Y     HAL2     0.900000E-01   1.00800           0
      7486 MEMB     56       POPC     C311     CTL2    -0.180000       12.0110           0
      7487 MEMB     56       POPC     H11X     HAL2     0.900000E-01   1.00800           0
      7488 MEMB     56       POPC     H11Y     HAL2     0.900000E-01   1.00800           0
      7489 MEMB     56       POPC     C312     CTL2    -0.180000       12.0110           0
      7490 MEMB     56       POPC     H12X     HAL2     0.900000E-01   1.00800           0
      7491 MEMB     56       POPC     H12Y     HAL2     0.900000E-01   1.00800           0
      7492 MEMB     56       POPC     C313     CTL2    -0.180000       12.0110           0
      7493 MEMB     56       POPC     H13X     HAL2     0.900000E-01   1.00800           0
      7494 MEMB     56       POPC     H13Y     HAL2     0.900000E-01   1.00800           0
      7495 MEMB     56       POPC     C314     CTL2    -0.180000       12.0110           0
      7496 MEMB     56       POPC     H14X     HAL2     0.900000E-01   1.00800           0
      7497 MEMB     56       POPC     H14Y     HAL2     0.900000E-01   1.00800           0
      7498 MEMB     56       POPC     C315     CTL2    -0.180000       12.0110           0
      7499 MEMB     56       POPC     H15X     HAL2     0.900000E-01   1.00800           0
      7500 MEMB     56       POPC     H15Y     HAL2     0.900000E-01   1.00800           0
      7501 MEMB     56       POPC     C316     CTL3    -0.270000       12.0110           0
      7502 MEMB     56       POPC     H16X     HAL3     0.900000E-01   1.00800           0
      7503 MEMB     56       POPC     H16Y     HAL3     0.900000E-01   1.00800           0
      7504 MEMB     56       POPC     H16Z     HAL3     0.900000E-01   1.00800           0
      7505 MEMB     57       POPC     N        NTL     -0.600000       14.0070           0
      7506 MEMB     57       POPC     C12      CTL2    -0.100000       12.0110           0
      7507 MEMB     57       POPC     H12A     HL       0.250000       1.00800           0
      7508 MEMB     57       POPC     H12B     HL       0.250000       1.00800           0
      7509 MEMB     57       POPC     C13      CTL5    -0.350000       12.0110           0
      7510 MEMB     57       POPC     H13A     HL       0.250000       1.00800           0
      7511 MEMB     57       POPC     H13B     HL       0.250000       1.00800           0
      7512 MEMB     57       POPC     H13C     HL       0.250000       1.00800           0
      7513 MEMB     57       POPC     C14      CTL5    -0.350000       12.0110           0
      7514 MEMB     57       POPC     H14A     HL       0.250000       1.00800           0
      7515 MEMB     57       POPC     H14B     HL       0.250000       1.00800           0
      7516 MEMB     57       POPC     H14C     HL       0.250000       1.00800           0
      7517 MEMB     57       POPC     C15      CTL5    -0.350000       12.0110           0
      7518 MEMB     57       POPC     H15A     HL       0.250000       1.00800           0
      7519 MEMB     57       POPC     H15B     HL       0.250000       1.00800           0
      7520 MEMB     57       POPC     H15C     HL       0.250000       1.00800           0
      7521 MEMB     57       POPC     C11      CTL2    -0.800000E-01   12.0110           0
      7522 MEMB     57       POPC     H11A     HAL2     0.900000E-01   1.00800           0
      7523 MEMB     57       POPC     H11B     HAL2     0.900000E-01   1.00800           0
      7524 MEMB     57       POPC     P        PL        1.50000       30.9740           0
      7525 MEMB     57       POPC     O13      O2L     -0.780000       15.9994           0
      7526 MEMB     57       POPC     O14      O2L     -0.780000       15.9994           0
      7527 MEMB     57       POPC     O12      OSLP    -0.570000       15.9994           0
      7528 MEMB     57       POPC     O11      OSLP    -0.570000       15.9994           0
      7529 MEMB     57       POPC     C1       CTL2    -0.800000E-01   12.0110           0
      7530 MEMB     57       POPC     HA       HAL2     0.900000E-01   1.00800           0
      7531 MEMB     57       POPC     HB       HAL2     0.900000E-01   1.00800           0
      7532 MEMB     57       POPC     C2       CTL1     0.170000       12.0110           0
      7533 MEMB     57       POPC     HS       HAL1     0.900000E-01   1.00800           0
      7534 MEMB     57       POPC     O21      OSL     -0.490000       15.9994           0
      7535 MEMB     57       POPC     C21      CL       0.900000       12.0110           0
      7536 MEMB     57       POPC     O22      OBL     -0.630000       15.9994           0
      7537 MEMB     57       POPC     C22      CTL2    -0.220000       12.0110           0
      7538 MEMB     57       POPC     H2R      HAL2     0.900000E-01   1.00800           0
      7539 MEMB     57       POPC     H2S      HAL2     0.900000E-01   1.00800           0
      7540 MEMB     57       POPC     C3       CTL2     0.800000E-01   12.0110           0
      7541 MEMB     57       POPC     HX       HAL2     0.900000E-01   1.00800           0
      7542 MEMB     57       POPC     HY       HAL2     0.900000E-01   1.00800           0
      7543 MEMB     57       POPC     O31      OSL     -0.490000       15.9994           0
      7544 MEMB     57       POPC     C31      CL       0.900000       12.0110           0
      7545 MEMB     57       POPC     O32      OBL     -0.630000       15.9994           0
      7546 MEMB     57       POPC     C32      CTL2    -0.220000       12.0110           0
      7547 MEMB     57       POPC     H2X      HAL2     0.900000E-01   1.00800           0
      7548 MEMB     57       POPC     H2Y      HAL2     0.900000E-01   1.00800           0
      7549 MEMB     57       POPC     C23      CTL2    -0.180000       12.0110           0
      7550 MEMB     57       POPC     H3R      HAL2     0.900000E-01   1.00800           0
      7551 MEMB     57       POPC     H3S      HAL2     0.900000E-01   1.00800           0
      7552 MEMB     57       POPC     C24      CTL2    -0.180000       12.0110           0
      7553 MEMB     57       POPC     H4R      HAL2     0.900000E-01   1.00800           0
      7554 MEMB     57       POPC     H4S      HAL2     0.900000E-01   1.00800           0
      7555 MEMB     57       POPC     C25      CTL2    -0.180000       12.0110           0
      7556 MEMB     57       POPC     H5R      HAL2     0.900000E-01   1.00800           0
      7557 MEMB     57       POPC     H5S      HAL2     0.900000E-01   1.00800           0
      7558 MEMB     57       POPC     C26      CTL2    -0.180000       12.0110           0
      7559 MEMB     57       POPC     H6R      HAL2     0.900000E-01   1.00800           0
      7560 MEMB     57       POPC     H6S      HAL2     0.900000E-01   1.00800           0
      7561 MEMB     57       POPC     C27      CTL2    -0.180000       12.0110           0
      7562 MEMB     57       POPC     H7R      HAL2     0.900000E-01   1.00800           0
      7563 MEMB     57       POPC     H7S      HAL2     0.900000E-01   1.00800           0
      7564 MEMB     57       POPC     C28      CTL2    -0.180000       12.0110           0
      7565 MEMB     57       POPC     H8R      HAL2     0.900000E-01   1.00800           0
      7566 MEMB     57       POPC     H8S      HAL2     0.900000E-01   1.00800           0
      7567 MEMB     57       POPC     C29      CEL1    -0.150000       12.0110           0
      7568 MEMB     57       POPC     H91      HEL1     0.150000       1.00800           0
      7569 MEMB     57       POPC     C210     CEL1    -0.150000       12.0110           0
      7570 MEMB     57       POPC     H101     HEL1     0.150000       1.00800           0
      7571 MEMB     57       POPC     C211     CTL2    -0.180000       12.0110           0
      7572 MEMB     57       POPC     H11R     HAL2     0.900000E-01   1.00800           0
      7573 MEMB     57       POPC     H11S     HAL2     0.900000E-01   1.00800           0
      7574 MEMB     57       POPC     C212     CTL2    -0.180000       12.0110           0
      7575 MEMB     57       POPC     H12R     HAL2     0.900000E-01   1.00800           0
      7576 MEMB     57       POPC     H12S     HAL2     0.900000E-01   1.00800           0
      7577 MEMB     57       POPC     C213     CTL2    -0.180000       12.0110           0
      7578 MEMB     57       POPC     H13R     HAL2     0.900000E-01   1.00800           0
      7579 MEMB     57       POPC     H13S     HAL2     0.900000E-01   1.00800           0
      7580 MEMB     57       POPC     C214     CTL2    -0.180000       12.0110           0
      7581 MEMB     57       POPC     H14R     HAL2     0.900000E-01   1.00800           0
      7582 MEMB     57       POPC     H14S     HAL2     0.900000E-01   1.00800           0
      7583 MEMB     57       POPC     C215     CTL2    -0.180000       12.0110           0
      7584 MEMB     57       POPC     H15R     HAL2     0.900000E-01   1.00800           0
      7585 MEMB     57       POPC     H15S     HAL2     0.900000E-01   1.00800           0
      7586 MEMB     57       POPC     C216     CTL2    -0.180000       12.0110           0
      7587 MEMB     57       POPC     H16R     HAL2     0.900000E-01   1.00800           0
      7588 MEMB     57       POPC     H16S     HAL2     0.900000E-01   1.00800           0
      7589 MEMB     57       POPC     C217     CTL2    -0.180000       12.0110           0
      7590 MEMB     57       POPC     H17R     HAL2     0.900000E-01   1.00800           0
      7591 MEMB     57       POPC     H17S     HAL2     0.900000E-01   1.00800           0
      7592 MEMB     57       POPC     C218     CTL3    -0.270000       12.0110           0
      7593 MEMB     57       POPC     H18R     HAL3     0.900000E-01   1.00800           0
      7594 MEMB     57       POPC     H18S     HAL3     0.900000E-01   1.00800           0
      7595 MEMB     57       POPC     H18T     HAL3     0.900000E-01   1.00800           0
      7596 MEMB     57       POPC     C33      CTL2    -0.180000       12.0110           0
      7597 MEMB     57       POPC     H3X      HAL2     0.900000E-01   1.00800           0
      7598 MEMB     57       POPC     H3Y      HAL2     0.900000E-01   1.00800           0
      7599 MEMB     57       POPC     C34      CTL2    -0.180000       12.0110           0
      7600 MEMB     57       POPC     H4X      HAL2     0.900000E-01   1.00800           0
      7601 MEMB     57       POPC     H4Y      HAL2     0.900000E-01   1.00800           0
      7602 MEMB     57       POPC     C35      CTL2    -0.180000       12.0110           0
      7603 MEMB     57       POPC     H5X      HAL2     0.900000E-01   1.00800           0
      7604 MEMB     57       POPC     H5Y      HAL2     0.900000E-01   1.00800           0
      7605 MEMB     57       POPC     C36      CTL2    -0.180000       12.0110           0
      7606 MEMB     57       POPC     H6X      HAL2     0.900000E-01   1.00800           0
      7607 MEMB     57       POPC     H6Y      HAL2     0.900000E-01   1.00800           0
      7608 MEMB     57       POPC     C37      CTL2    -0.180000       12.0110           0
      7609 MEMB     57       POPC     H7X      HAL2     0.900000E-01   1.00800           0
      7610 MEMB     57       POPC     H7Y      HAL2     0.900000E-01   1.00800           0
      7611 MEMB     57       POPC     C38      CTL2    -0.180000       12.0110           0
      7612 MEMB     57       POPC     H8X      HAL2     0.900000E-01   1.00800           0
      7613 MEMB     57       POPC     H8Y      HAL2     0.900000E-01   1.00800           0
      7614 MEMB     57       POPC     C39      CTL2    -0.180000       12.0110           0
      7615 MEMB     57       POPC     H9X      HAL2     0.900000E-01   1.00800           0
      7616 MEMB     57       POPC     H9Y      HAL2     0.900000E-01   1.00800           0
      7617 MEMB     57       POPC     C310     CTL2    -0.180000       12.0110           0
      7618 MEMB     57       POPC     H10X     HAL2     0.900000E-01   1.00800           0
      7619 MEMB     57       POPC     H10Y     HAL2     0.900000E-01   1.00800           0
      7620 MEMB     57       POPC     C311     CTL2    -0.180000       12.0110           0
      7621 MEMB     57       POPC     H11X     HAL2     0.900000E-01   1.00800           0
      7622 MEMB     57       POPC     H11Y     HAL2     0.900000E-01   1.00800           0
      7623 MEMB     57       POPC     C312     CTL2    -0.180000       12.0110           0
      7624 MEMB     57       POPC     H12X     HAL2     0.900000E-01   1.00800           0
      7625 MEMB     57       POPC     H12Y     HAL2     0.900000E-01   1.00800           0
      7626 MEMB     57       POPC     C313     CTL2    -0.180000       12.0110           0
      7627 MEMB     57       POPC     H13X     HAL2     0.900000E-01   1.00800           0
      7628 MEMB     57       POPC     H13Y     HAL2     0.900000E-01   1.00800           0
      7629 MEMB     57       POPC     C314     CTL2    -0.180000       12.0110           0
      7630 MEMB     57       POPC     H14X     HAL2     0.900000E-01   1.00800           0
      7631 MEMB     57       POPC     H14Y     HAL2     0.900000E-01   1.00800           0
      7632 MEMB     57       POPC     C315     CTL2    -0.180000       12.0110           0
      7633 MEMB     57       POPC     H15X     HAL2     0.900000E-01   1.00800           0
      7634 MEMB     57       POPC     H15Y     HAL2     0.900000E-01   1.00800           0
      7635 MEMB     57       POPC     C316     CTL3    -0.270000       12.0110           0
      7636 MEMB     57       POPC     H16X     HAL3     0.900000E-01   1.00800           0
      7637 MEMB     57       POPC     H16Y     HAL3     0.900000E-01   1.00800           0
      7638 MEMB     57       POPC     H16Z     HAL3     0.900000E-01   1.00800           0
      7639 MEMB     58       POPC     N        NTL     -0.600000       14.0070           0
      7640 MEMB     58       POPC     C12      CTL2    -0.100000       12.0110           0
      7641 MEMB     58       POPC     H12A     HL       0.250000       1.00800           0
      7642 MEMB     58       POPC     H12B     HL       0.250000       1.00800           0
      7643 MEMB     58       POPC     C13      CTL5    -0.350000       12.0110           0
      7644 MEMB     58       POPC     H13A     HL       0.250000       1.00800           0
      7645 MEMB     58       POPC     H13B     HL       0.250000       1.00800           0
      7646 MEMB     58       POPC     H13C     HL       0.250000       1.00800           0
      7647 MEMB     58       POPC     C14      CTL5    -0.350000       12.0110           0
      7648 MEMB     58       POPC     H14A     HL       0.250000       1.00800           0
      7649 MEMB     58       POPC     H14B     HL       0.250000       1.00800           0
      7650 MEMB     58       POPC     H14C     HL       0.250000       1.00800           0
      7651 MEMB     58       POPC     C15      CTL5    -0.350000       12.0110           0
      7652 MEMB     58       POPC     H15A     HL       0.250000       1.00800           0
      7653 MEMB     58       POPC     H15B     HL       0.250000       1.00800           0
      7654 MEMB     58       POPC     H15C     HL       0.250000       1.00800           0
      7655 MEMB     58       POPC     C11      CTL2    -0.800000E-01   12.0110           0
      7656 MEMB     58       POPC     H11A     HAL2     0.900000E-01   1.00800           0
      7657 MEMB     58       POPC     H11B     HAL2     0.900000E-01   1.00800           0
      7658 MEMB     58       POPC     P        PL        1.50000       30.9740           0
      7659 MEMB     58       POPC     O13      O2L     -0.780000       15.9994           0
      7660 MEMB     58       POPC     O14      O2L     -0.780000       15.9994           0
      7661 MEMB     58       POPC     O12      OSLP    -0.570000       15.9994           0
      7662 MEMB     58       POPC     O11      OSLP    -0.570000       15.9994           0
      7663 MEMB     58       POPC     C1       CTL2    -0.800000E-01   12.0110           0
      7664 MEMB     58       POPC     HA       HAL2     0.900000E-01   1.00800           0
      7665 MEMB     58       POPC     HB       HAL2     0.900000E-01   1.00800           0
      7666 MEMB     58       POPC     C2       CTL1     0.170000       12.0110           0
      7667 MEMB     58       POPC     HS       HAL1     0.900000E-01   1.00800           0
      7668 MEMB     58       POPC     O21      OSL     -0.490000       15.9994           0
      7669 MEMB     58       POPC     C21      CL       0.900000       12.0110           0
      7670 MEMB     58       POPC     O22      OBL     -0.630000       15.9994           0
      7671 MEMB     58       POPC     C22      CTL2    -0.220000       12.0110           0
      7672 MEMB     58       POPC     H2R      HAL2     0.900000E-01   1.00800           0
      7673 MEMB     58       POPC     H2S      HAL2     0.900000E-01   1.00800           0
      7674 MEMB     58       POPC     C3       CTL2     0.800000E-01   12.0110           0
      7675 MEMB     58       POPC     HX       HAL2     0.900000E-01   1.00800           0
      7676 MEMB     58       POPC     HY       HAL2     0.900000E-01   1.00800           0
      7677 MEMB     58       POPC     O31      OSL     -0.490000       15.9994           0
      7678 MEMB     58       POPC     C31      CL       0.900000       12.0110           0
      7679 MEMB     58       POPC     O32      OBL     -0.630000       15.9994           0
      7680 MEMB     58       POPC     C32      CTL2    -0.220000       12.0110           0
      7681 MEMB     58       POPC     H2X      HAL2     0.900000E-01   1.00800           0
      7682 MEMB     58       POPC     H2Y      HAL2     0.900000E-01   1.00800           0
      7683 MEMB     58       POPC     C23      CTL2    -0.180000       12.0110           0
      7684 MEMB     58       POPC     H3R      HAL2     0.900000E-01   1.00800           0
      7685 MEMB     58       POPC     H3S      HAL2     0.900000E-01   1.00800           0
      7686 MEMB     58       POPC     C24      CTL2    -0.180000       12.0110           0
      7687 MEMB     58       POPC     H4R      HAL2     0.900000E-01   1.00800           0
      7688 MEMB     58       POPC     H4S      HAL2     0.900000E-01   1.00800           0
      7689 MEMB     58       POPC     C25      CTL2    -0.180000       12.0110           0
      7690 MEMB     58       POPC     H5R      HAL2     0.900000E-01   1.00800           0
      7691 MEMB     58       POPC     H5S      HAL2     0.900000E-01   1.00800           0
      7692 MEMB     58       POPC     C26      CTL2    -0.180000       12.0110           0
      7693 MEMB     58       POPC     H6R      HAL2     0.900000E-01   1.00800           0
      7694 MEMB     58       POPC     H6S      HAL2     0.900000E-01   1.00800           0
      7695 MEMB     58       POPC     C27      CTL2    -0.180000       12.0110           0
      7696 MEMB     58       POPC     H7R      HAL2     0.900000E-01   1.00800           0
      7697 MEMB     58       POPC     H7S      HAL2     0.900000E-01   1.00800           0
      7698 MEMB     58       POPC     C28      CTL2    -0.180000       12.0110           0
      7699 MEMB     58       POPC     H8R      HAL2     0.900000E-01   1.00800           0
      7700 MEMB     58       POPC     H8S      HAL2     0.900000E-01   1.00800           0
      7701 MEMB     58       POPC     C29      CEL1    -0.150000       12.0110           0
      7702 MEMB     58       POPC     H91      HEL1     0.150000       1.00800           0
      7703 MEMB     58       POPC     C210     CEL1    -0.150000       12.0110           0
      7704 MEMB     58       POPC     H101     HEL1     0.150000       1.00800           0
      7705 MEMB     58       POPC     C211     CTL2    -0.180000       12.0110           0
      7706 MEMB     58       POPC     H11R     HAL2     0.900000E-01   1.00800           0
      7707 MEMB     58       POPC     H11S     HAL2     0.900000E-01   1.00800           0
      7708 MEMB     58       POPC     C212     CTL2    -0.180000       12.0110           0
      7709 MEMB     58       POPC     H12R     HAL2     0.900000E-01   1.00800           0
      7710 MEMB     58       POPC     H12S     HAL2     0.900000E-01   1.00800           0
      7711 MEMB     58       POPC     C213     CTL2    -0.180000       12.0110           0
      7712 MEMB     58       POPC     H13R     HAL2     0.900000E-01   1.00800           0
      7713 MEMB     58       POPC     H13S     HAL2     0.900000E-01   1.00800           0
      7714 MEMB     58       POPC     C214     CTL2    -0.180000       12.0110           0
      7715 MEMB     58       POPC     H14R     HAL2     0.900000E-01   1.00800           0
      7716 MEMB     58       POPC     H14S     HAL2     0.900000E-01   1.00800           0
      7717 MEMB     58       POPC     C215     CTL2    -0.180000       12.0110           0
      7718 MEMB     58       POPC     H15R     HAL2     0.900000E-01   1.00800           0
      7719 MEMB     58       POPC     H15S     HAL2     0.900000E-01   1.00800           0
      7720 MEMB     58       POPC     C216     CTL2    -0.180000       12.0110           0
      7721 MEMB     58       POPC     H16R     HAL2     0.900000E-01   1.00800           0
      7722 MEMB     58       POPC     H16S     HAL2     0.900000E-01   1.00800           0
      7723 MEMB     58       POPC     C217     CTL2    -0.180000       12.0110           0
      7724 MEMB     58       POPC     H17R     HAL2     0.900000E-01   1.00800           0
      7725 MEMB     58       POPC     H17S     HAL2     0.900000E-01   1.00800           0
      7726 MEMB     58       POPC     C218     CTL3    -0.270000       12.0110           0
      7727 MEMB     58       POPC     H18R     HAL3     0.900000E-01   1.00800           0
      7728 MEMB     58       POPC     H18S     HAL3     0.900000E-01   1.00800           0
      7729 MEMB     58       POPC     H18T     HAL3     0.900000E-01   1.00800           0
      7730 MEMB     58       POPC     C33      CTL2    -0.180000       12.0110           0
      7731 MEMB     58       POPC     H3X      HAL2     0.900000E-01   1.00800           0
      7732 MEMB     58       POPC     H3Y      HAL2     0.900000E-01   1.00800           0
      7733 MEMB     58       POPC     C34      CTL2    -0.180000       12.0110           0
      7734 MEMB     58       POPC     H4X      HAL2     0.900000E-01   1.00800           0
      7735 MEMB     58       POPC     H4Y      HAL2     0.900000E-01   1.00800           0
      7736 MEMB     58       POPC     C35      CTL2    -0.180000       12.0110           0
      7737 MEMB     58       POPC     H5X      HAL2     0.900000E-01   1.00800           0
      7738 MEMB     58       POPC     H5Y      HAL2     0.900000E-01   1.00800           0
      7739 MEMB     58       POPC     C36      CTL2    -0.180000       12.0110           0
      7740 MEMB     58       POPC     H6X      HAL2     0.900000E-01   1.00800           0
      7741 MEMB     58       POPC     H6Y      HAL2     0.900000E-01   1.00800           0
      7742 MEMB     58       POPC     C37      CTL2    -0.180000       12.0110           0
      7743 MEMB     58       POPC     H7X      HAL2     0.900000E-01   1.00800           0
      7744 MEMB     58       POPC     H7Y      HAL2     0.900000E-01   1.00800           0
      7745 MEMB     58       POPC     C38      CTL2    -0.180000       12.0110           0
      7746 MEMB     58       POPC     H8X      HAL2     0.900000E-01   1.00800           0
      7747 MEMB     58       POPC     H8Y      HAL2     0.900000E-01   1.00800           0
      7748 MEMB     58       POPC     C39      CTL2    -0.180000       12.0110           0
      7749 MEMB     58       POPC     H9X      HAL2     0.900000E-01   1.00800           0
      7750 MEMB     58       POPC     H9Y      HAL2     0.900000E-01   1.00800           0
      7751 MEMB     58       POPC     C310     CTL2    -0.180000       12.0110           0
      7752 MEMB     58       POPC     H10X     HAL2     0.900000E-01   1.00800           0
      7753 MEMB     58       POPC     H10Y     HAL2     0.900000E-01   1.00800           0
      7754 MEMB     58       POPC     C311     CTL2    -0.180000       12.0110           0
      7755 MEMB     58       POPC     H11X     HAL2     0.900000E-01   1.00800           0
      7756 MEMB     58       POPC     H11Y     HAL2     0.900000E-01   1.00800           0
      7757 MEMB     58       POPC     C312     CTL2    -0.180000       12.0110           0
      7758 MEMB     58       POPC     H12X     HAL2     0.900000E-01   1.00800           0
      7759 MEMB     58       POPC     H12Y     HAL2     0.900000E-01   1.00800           0
      7760 MEMB     58       POPC     C313     CTL2    -0.180000       12.0110           0
      7761 MEMB     58       POPC     H13X     HAL2     0.900000E-01   1.00800           0
      7762 MEMB     58       POPC     H13Y     HAL2     0.900000E-01   1.00800           0
      7763 MEMB     58       POPC     C314     CTL2    -0.180000       12.0110           0
      7764 MEMB     58       POPC     H14X     HAL2     0.900000E-01   1.00800           0
      7765 MEMB     58       POPC     H14Y     HAL2     0.900000E-01   1.00800           0
      7766 MEMB     58       POPC     C315     CTL2    -0.180000       12.0110           0
      7767 MEMB     58       POPC     H15X     HAL2     0.900000E-01   1.00800           0
      7768 MEMB     58       POPC     H15Y     HAL2     0.900000E-01   1.00800           0
      7769 MEMB     58       POPC     C316     CTL3    -0.270000       12.0110           0
      7770 MEMB     58       POPC     H16X     HAL3     0.900000E-01   1.00800           0
      7771 MEMB     58       POPC     H16Y     HAL3     0.900000E-01   1.00800           0
      7772 MEMB     58       POPC     H16Z     HAL3     0.900000E-01   1.00800           0
      7773 MEMB     59       POPC     N        NTL     -0.600000       14.0070           0
      7774 MEMB     59       POPC     C12      CTL2    -0.100000       12.0110           0
      7775 MEMB     59       POPC     H12A     HL       0.250000       1.00800           0
      7776 MEMB     59       POPC     H12B     HL       0.250000       1.00800           0
      7777 MEMB     59       POPC     C13      CTL5    -0.350000       12.0110           0
      7778 MEMB     59       POPC     H13A     HL       0.250000       1.00800           0
      7779 MEMB     59       POPC     H13B     HL       0.250000       1.00800           0
      7780 MEMB     59       POPC     H13C     HL       0.250000       1.00800           0
      7781 MEMB     59       POPC     C14      CTL5    -0.350000       12.0110           0
      7782 MEMB     59       POPC     H14A     HL       0.250000       1.00800           0
      7783 MEMB     59       POPC     H14B     HL       0.250000       1.00800           0
      7784 MEMB     59       POPC     H14C     HL       0.250000       1.00800           0
      7785 MEMB     59       POPC     C15      CTL5    -0.350000       12.0110           0
      7786 MEMB     59       POPC     H15A     HL       0.250000       1.00800           0
      7787 MEMB     59       POPC     H15B     HL       0.250000       1.00800           0
      7788 MEMB     59       POPC     H15C     HL       0.250000       1.00800           0
      7789 MEMB     59       POPC     C11      CTL2    -0.800000E-01   12.0110           0
      7790 MEMB     59       POPC     H11A     HAL2     0.900000E-01   1.00800           0
      7791 MEMB     59       POPC     H11B     HAL2     0.900000E-01   1.00800           0
      7792 MEMB     59       POPC     P        PL        1.50000       30.9740           0
      7793 MEMB     59       POPC     O13      O2L     -0.780000       15.9994           0
      7794 MEMB     59       POPC     O14      O2L     -0.780000       15.9994           0
      7795 MEMB     59       POPC     O12      OSLP    -0.570000       15.9994           0
      7796 MEMB     59       POPC     O11      OSLP    -0.570000       15.9994           0
      7797 MEMB     59       POPC     C1       CTL2    -0.800000E-01   12.0110           0
      7798 MEMB     59       POPC     HA       HAL2     0.900000E-01   1.00800           0
      7799 MEMB     59       POPC     HB       HAL2     0.900000E-01   1.00800           0
      7800 MEMB     59       POPC     C2       CTL1     0.170000       12.0110           0
      7801 MEMB     59       POPC     HS       HAL1     0.900000E-01   1.00800           0
      7802 MEMB     59       POPC     O21      OSL     -0.490000       15.9994           0
      7803 MEMB     59       POPC     C21      CL       0.900000       12.0110           0
      7804 MEMB     59       POPC     O22      OBL     -0.630000       15.9994           0
      7805 MEMB     59       POPC     C22      CTL2    -0.220000       12.0110           0
      7806 MEMB     59       POPC     H2R      HAL2     0.900000E-01   1.00800           0
      7807 MEMB     59       POPC     H2S      HAL2     0.900000E-01   1.00800           0
      7808 MEMB     59       POPC     C3       CTL2     0.800000E-01   12.0110           0
      7809 MEMB     59       POPC     HX       HAL2     0.900000E-01   1.00800           0
      7810 MEMB     59       POPC     HY       HAL2     0.900000E-01   1.00800           0
      7811 MEMB     59       POPC     O31      OSL     -0.490000       15.9994           0
      7812 MEMB     59       POPC     C31      CL       0.900000       12.0110           0
      7813 MEMB     59       POPC     O32      OBL     -0.630000       15.9994           0
      7814 MEMB     59       POPC     C32      CTL2    -0.220000       12.0110           0
      7815 MEMB     59       POPC     H2X      HAL2     0.900000E-01   1.00800           0
      7816 MEMB     59       POPC     H2Y      HAL2     0.900000E-01   1.00800           0
      7817 MEMB     59       POPC     C23      CTL2    -0.180000       12.0110           0
      7818 MEMB     59       POPC     H3R      HAL2     0.900000E-01   1.00800           0
      7819 MEMB     59       POPC     H3S      HAL2     0.900000E-01   1.00800           0
      7820 MEMB     59       POPC     C24      CTL2    -0.180000       12.0110           0
      7821 MEMB     59       POPC     H4R      HAL2     0.900000E-01   1.00800           0
      7822 MEMB     59       POPC     H4S      HAL2     0.900000E-01   1.00800           0
      7823 MEMB     59       POPC     C25      CTL2    -0.180000       12.0110           0
      7824 MEMB     59       POPC     H5R      HAL2     0.900000E-01   1.00800           0
      7825 MEMB     59       POPC     H5S      HAL2     0.900000E-01   1.00800           0
      7826 MEMB     59       POPC     C26      CTL2    -0.180000       12.0110           0
      7827 MEMB     59       POPC     H6R      HAL2     0.900000E-01   1.00800           0
      7828 MEMB     59       POPC     H6S      HAL2     0.900000E-01   1.00800           0
      7829 MEMB     59       POPC     C27      CTL2    -0.180000       12.0110           0
      7830 MEMB     59       POPC     H7R      HAL2     0.900000E-01   1.00800           0
      7831 MEMB     59       POPC     H7S      HAL2     0.900000E-01   1.00800           0
      7832 MEMB     59       POPC     C28      CTL2    -0.180000       12.0110           0
      7833 MEMB     59       POPC     H8R      HAL2     0.900000E-01   1.00800           0
      7834 MEMB     59       POPC     H8S      HAL2     0.900000E-01   1.00800           0
      7835 MEMB     59       POPC     C29      CEL1    -0.150000       12.0110           0
      7836 MEMB     59       POPC     H91      HEL1     0.150000       1.00800           0
      7837 MEMB     59       POPC     C210     CEL1    -0.150000       12.0110           0
      7838 MEMB     59       POPC     H101     HEL1     0.150000       1.00800           0
      7839 MEMB     59       POPC     C211     CTL2    -0.180000       12.0110           0
      7840 MEMB     59       POPC     H11R     HAL2     0.900000E-01   1.00800           0
      7841 MEMB     59       POPC     H11S     HAL2     0.900000E-01   1.00800           0
      7842 MEMB     59       POPC     C212     CTL2    -0.180000       12.0110           0
      7843 MEMB     59       POPC     H12R     HAL2     0.900000E-01   1.00800           0
      7844 MEMB     59       POPC     H12S     HAL2     0.900000E-01   1.00800           0
      7845 MEMB     59       POPC     C213     CTL2    -0.180000       12.0110           0
      7846 MEMB     59       POPC     H13R     HAL2     0.900000E-01   1.00800           0
      7847 MEMB     59       POPC     H13S     HAL2     0.900000E-01   1.00800           0
      7848 MEMB     59       POPC     C214     CTL2    -0.180000       12.0110           0
      7849 MEMB     59       POPC     H14R     HAL2     0.900000E-01   1.00800           0
      7850 MEMB     59       POPC     H14S     HAL2     0.900000E-01   1.00800           0
      7851 MEMB     59       POPC     C215     CTL2    -0.180000       12.0110           0
      7852 MEMB     59       POPC     H15R     HAL2     0.900000E-01   1.00800           0
      7853 MEMB     59       POPC     H15S     HAL2     0.900000E-01   1.00800           0
      7854 MEMB     59       POPC     C216     CTL2    -0.180000       12.0110           0
      7855 MEMB     59       POPC     H16R     HAL2     0.900000E-01   1.00800           0
      7856 MEMB     59       POPC     H16S     HAL2     0.900000E-01   1.00800           0
      7857 MEMB     59       POPC     C217     CTL2    -0.180000       12.0110           0
      7858 MEMB     59       POPC     H17R     HAL2     0.900000E-01   1.00800           0
      7859 MEMB     59       POPC     H17S     HAL2     0.900000E-01   1.00800           0
      7860 MEMB     59       POPC     C218     CTL3    -0.270000       12.0110           0
      7861 MEMB     59       POPC     H18R     HAL3     0.900000E-01   1.00800           0
      7862 MEMB     59       POPC     H18S     HAL3     0.900000E-01   1.00800           0
      7863 MEMB     59       POPC     H18T     HAL3     0.900000E-01   1.00800           0
      7864 MEMB     59       POPC     C33      CTL2    -0.180000       12.0110           0
      7865 MEMB     59       POPC     H3X      HAL2     0.900000E-01   1.00800           0
      7866 MEMB     59       POPC     H3Y      HAL2     0.900000E-01   1.00800           0
      7867 MEMB     59       POPC     C34      CTL2    -0.180000       12.0110           0
      7868 MEMB     59       POPC     H4X      HAL2     0.900000E-01   1.00800           0
      7869 MEMB     59       POPC     H4Y      HAL2     0.900000E-01   1.00800           0
      7870 MEMB     59       POPC     C35      CTL2    -0.180000       12.0110           0
      7871 MEMB     59       POPC     H5X      HAL2     0.900000E-01   1.00800           0
      7872 MEMB     59       POPC     H5Y      HAL2     0.900000E-01   1.00800           0
      7873 MEMB     59       POPC     C36      CTL2    -0.180000       12.0110           0
      7874 MEMB     59       POPC     H6X      HAL2     0.900000E-01   1.00800           0
      7875 MEMB     59       POPC     H6Y      HAL2     0.900000E-01   1.00800           0
      7876 MEMB     59       POPC     C37      CTL2    -0.180000       12.0110           0
      7877 MEMB     59       POPC     H7X      HAL2     0.900000E-01   1.00800           0
      7878 MEMB     59       POPC     H7Y      HAL2     0.900000E-01   1.00800           0
      7879 MEMB     59       POPC     C38      CTL2    -0.180000       12.0110           0
      7880 MEMB     59       POPC     H8X      HAL2     0.900000E-01   1.00800           0
      7881 MEMB     59       POPC     H8Y      HAL2     0.900000E-01   1.00800           0
      7882 MEMB     59       POPC     C39      CTL2    -0.180000       12.0110           0
      7883 MEMB     59       POPC     H9X      HAL2     0.900000E-01   1.00800           0
      7884 MEMB     59       POPC     H9Y      HAL2     0.900000E-01   1.00800           0
      7885 MEMB     59       POPC     C310     CTL2    -0.180000       12.0110           0
      7886 MEMB     59       POPC     H10X     HAL2     0.900000E-01   1.00800           0
      7887 MEMB     59       POPC     H10Y     HAL2     0.900000E-01   1.00800           0
      7888 MEMB     59       POPC     C311     CTL2    -0.180000       12.0110           0
      7889 MEMB     59       POPC     H11X     HAL2     0.900000E-01   1.00800           0
      7890 MEMB     59       POPC     H11Y     HAL2     0.900000E-01   1.00800           0
      7891 MEMB     59       POPC     C312     CTL2    -0.180000       12.0110           0
      7892 MEMB     59       POPC     H12X     HAL2     0.900000E-01   1.00800           0
      7893 MEMB     59       POPC     H12Y     HAL2     0.900000E-01   1.00800           0
      7894 MEMB     59       POPC     C313     CTL2    -0.180000       12.0110           0
      7895 MEMB     59       POPC     H13X     HAL2     0.900000E-01   1.00800           0
      7896 MEMB     59       POPC     H13Y     HAL2     0.900000E-01   1.00800           0
      7897 MEMB     59       POPC     C314     CTL2    -0.180000       12.0110           0
      7898 MEMB     59       POPC     H14X     HAL2     0.900000E-01   1.00800           0
      7899 MEMB     59       POPC     H14Y     HAL2     0.900000E-01   1.00800           0
      7900 MEMB     59       POPC     C315     CTL2    -0.180000       12.0110           0
      7901 MEMB     59       POPC     H15X     HAL2     0.900000E-01   1.00800           0
      7902 MEMB     59       POPC     H15Y     HAL2     0.900000E-01   1.00800           0
      7903 MEMB     59       POPC     C316     CTL3    -0.270000       12.0110           0
      7904 MEMB     59       POPC     H16X     HAL3     0.900000E-01   1.00800           0
      7905 MEMB     59       POPC     H16Y     HAL3     0.900000E-01   1.00800           0
      7906 MEMB     59       POPC     H16Z     HAL3     0.900000E-01   1.00800           0
      7907 MEMB     60       POPC     N        NTL     -0.600000       14.0070           0
      7908 MEMB     60       POPC     C12      CTL2    -0.100000       12.0110           0
      7909 MEMB     60       POPC     H12A     HL       0.250000       1.00800           0
      7910 MEMB     60       POPC     H12B     HL       0.250000       1.00800           0
      7911 MEMB     60       POPC     C13      CTL5    -0.350000       12.0110           0
      7912 MEMB     60       POPC     H13A     HL       0.250000       1.00800           0
      7913 MEMB     60       POPC     H13B     HL       0.250000       1.00800           0
      7914 MEMB     60       POPC     H13C     HL       0.250000       1.00800           0
      7915 MEMB     60       POPC     C14      CTL5    -0.350000       12.0110           0
      7916 MEMB     60       POPC     H14A     HL       0.250000       1.00800           0
      7917 MEMB     60       POPC     H14B     HL       0.250000       1.00800           0
      7918 MEMB     60       POPC     H14C     HL       0.250000       1.00800           0
      7919 MEMB     60       POPC     C15      CTL5    -0.350000       12.0110           0
      7920 MEMB     60       POPC     H15A     HL       0.250000       1.00800           0
      7921 MEMB     60       POPC     H15B     HL       0.250000       1.00800           0
      7922 MEMB     60       POPC     H15C     HL       0.250000       1.00800           0
      7923 MEMB     60       POPC     C11      CTL2    -0.800000E-01   12.0110           0
      7924 MEMB     60       POPC     H11A     HAL2     0.900000E-01   1.00800           0
      7925 MEMB     60       POPC     H11B     HAL2     0.900000E-01   1.00800           0
      7926 MEMB     60       POPC     P        PL        1.50000       30.9740           0
      7927 MEMB     60       POPC     O13      O2L     -0.780000       15.9994           0
      7928 MEMB     60       POPC     O14      O2L     -0.780000       15.9994           0
      7929 MEMB     60       POPC     O12      OSLP    -0.570000       15.9994           0
      7930 MEMB     60       POPC     O11      OSLP    -0.570000       15.9994           0
      7931 MEMB     60       POPC     C1       CTL2    -0.800000E-01   12.0110           0
      7932 MEMB     60       POPC     HA       HAL2     0.900000E-01   1.00800           0
      7933 MEMB     60       POPC     HB       HAL2     0.900000E-01   1.00800           0
      7934 MEMB     60       POPC     C2       CTL1     0.170000       12.0110           0
      7935 MEMB     60       POPC     HS       HAL1     0.900000E-01   1.00800           0
      7936 MEMB     60       POPC     O21      OSL     -0.490000       15.9994           0
      7937 MEMB     60       POPC     C21      CL       0.900000       12.0110           0
      7938 MEMB     60       POPC     O22      OBL     -0.630000       15.9994           0
      7939 MEMB     60       POPC     C22      CTL2    -0.220000       12.0110           0
      7940 MEMB     60       POPC     H2R      HAL2     0.900000E-01   1.00800           0
      7941 MEMB     60       POPC     H2S      HAL2     0.900000E-01   1.00800           0
      7942 MEMB     60       POPC     C3       CTL2     0.800000E-01   12.0110           0
      7943 MEMB     60       POPC     HX       HAL2     0.900000E-01   1.00800           0
      7944 MEMB     60       POPC     HY       HAL2     0.900000E-01   1.00800           0
      7945 MEMB     60       POPC     O31      OSL     -0.490000       15.9994           0
      7946 MEMB     60       POPC     C31      CL       0.900000       12.0110           0
      7947 MEMB     60       POPC     O32      OBL     -0.630000       15.9994           0
      7948 MEMB     60       POPC     C32      CTL2    -0.220000       12.0110           0
      7949 MEMB     60       POPC     H2X      HAL2     0.900000E-01   1.00800           0
      7950 MEMB     60       POPC     H2Y      HAL2     0.900000E-01   1.00800           0
      7951 MEMB     60       POPC     C23      CTL2    -0.180000       12.0110           0
      7952 MEMB     60       POPC     H3R      HAL2     0.900000E-01   1.00800           0
      7953 MEMB     60       POPC     H3S      HAL2     0.900000E-01   1.00800           0
      7954 MEMB     60       POPC     C24      CTL2    -0.180000       12.0110           0
      7955 MEMB     60       POPC     H4R      HAL2     0.900000E-01   1.00800           0
      7956 MEMB     60       POPC     H4S      HAL2     0.900000E-01   1.00800           0
      7957 MEMB     60       POPC     C25      CTL2    -0.180000       12.0110           0
      7958 MEMB     60       POPC     H5R      HAL2     0.900000E-01   1.00800           0
      7959 MEMB     60       POPC     H5S      HAL2     0.900000E-01   1.00800           0
      7960 MEMB     60       POPC     C26      CTL2    -0.180000       12.0110           0
      7961 MEMB     60       POPC     H6R      HAL2     0.900000E-01   1.00800           0
      7962 MEMB     60       POPC     H6S      HAL2     0.900000E-01   1.00800           0
      7963 MEMB     60       POPC     C27      CTL2    -0.180000       12.0110           0
      7964 MEMB     60       POPC     H7R      HAL2     0.900000E-01   1.00800           0
      7965 MEMB     60       POPC     H7S      HAL2     0.900000E-01   1.00800           0
      7966 MEMB     60       POPC     C28      CTL2    -0.180000       12.0110           0
      7967 MEMB     60       POPC     H8R      HAL2     0.900000E-01   1.00800           0
      7968 MEMB     60       POPC     H8S      HAL2     0.900000E-01   1.00800           0
      7969 MEMB     60       POPC     C29      CEL1    -0.150000       12.0110           0
      7970 MEMB     60       POPC     H91      HEL1     0.150000       1.00800           0
      7971 MEMB     60       POPC     C210     CEL1    -0.150000       12.0110           0
      7972 MEMB     60       POPC     H101     HEL1     0.150000       1.00800           0
      7973 MEMB     60       POPC     C211     CTL2    -0.180000       12.0110           0
      7974 MEMB     60       POPC     H11R     HAL2     0.900000E-01   1.00800           0
      7975 MEMB     60       POPC     H11S     HAL2     0.900000E-01   1.00800           0
      7976 MEMB     60       POPC     C212     CTL2    -0.180000       12.0110           0
      7977 MEMB     60       POPC     H12R     HAL2     0.900000E-01   1.00800           0
      7978 MEMB     60       POPC     H12S     HAL2     0.900000E-01   1.00800           0
      7979 MEMB     60       POPC     C213     CTL2    -0.180000       12.0110           0
      7980 MEMB     60       POPC     H13R     HAL2     0.900000E-01   1.00800           0
      7981 MEMB     60       POPC     H13S     HAL2     0.900000E-01   1.00800           0
      7982 MEMB     60       POPC     C214     CTL2    -0.180000       12.0110           0
      7983 MEMB     60       POPC     H14R     HAL2     0.900000E-01   1.00800           0
      7984 MEMB     60       POPC     H14S     HAL2     0.900000E-01   1.00800           0
      7985 MEMB     60       POPC     C215     CTL2    -0.180000       12.0110           0
      7986 MEMB     60       POPC     H15R     HAL2     0.900000E-01   1.00800           0
      7987 MEMB     60       POPC     H15S     HAL2     0.900000E-01   1.00800           0
      7988 MEMB     60       POPC     C216     CTL2    -0.180000       12.0110           0
      7989 MEMB     60       POPC     H16R     HAL2     0.900000E-01   1.00800           0
      7990 MEMB     60       POPC     H16S     HAL2     0.900000E-01   1.00800           0
      7991 MEMB     60       POPC     C217     CTL2    -0.180000       12.0110           0
      7992 MEMB     60       POPC     H17R     HAL2     0.900000E-01   1.00800           0
      7993 MEMB     60       POPC     H17S     HAL2     0.900000E-01   1.00800           0
      7994 MEMB     60       POPC     C218     CTL3    -0.270000       12.0110           0
      7995 MEMB     60       POPC     H18R     HAL3     0.900000E-01   1.00800           0
      7996 MEMB     60       POPC     H18S     HAL3     0.900000E-01   1.00800           0
      7997 MEMB     60       POPC     H18T     HAL3     0.900000E-01   1.00800           0
      7998 MEMB     60       POPC     C33      CTL2    -0.180000       12.0110           0
      7999 MEMB     60       POPC     H3X      HAL2     0.900000E-01   1.00800           0
      8000 MEMB     60       POPC     H3Y      HAL2     0.900000E-01   1.00800           0
      8001 MEMB     60       POPC     C34      CTL2    -0.180000       12.0110           0
      8002 MEMB     60       POPC     H4X      HAL2     0.900000E-01   1.00800           0
      8003 MEMB     60       POPC     H4Y      HAL2     0.900000E-01   1.00800           0
      8004 MEMB     60       POPC     C35      CTL2    -0.180000       12.0110           0
      8005 MEMB     60       POPC     H5X      HAL2     0.900000E-01   1.00800           0
      8006 MEMB     60       POPC     H5Y      HAL2     0.900000E-01   1.00800           0
      8007 MEMB     60       POPC     C36      CTL2    -0.180000       12.0110           0
      8008 MEMB     60       POPC     H6X      HAL2     0.900000E-01   1.00800           0
      8009 MEMB     60       POPC     H6Y      HAL2     0.900000E-01   1.00800           0
      8010 MEMB     60       POPC     C37      CTL2    -0.180000       12.0110           0
      8011 MEMB     60       POPC     H7X      HAL2     0.900000E-01   1.00800           0
      8012 MEMB     60       POPC     H7Y      HAL2     0.900000E-01   1.00800           0
      8013 MEMB     60       POPC     C38      CTL2    -0.180000       12.0110           0
      8014 MEMB     60       POPC     H8X      HAL2     0.900000E-01   1.00800           0
      8015 MEMB     60       POPC     H8Y      HAL2     0.900000E-01   1.00800           0
      8016 MEMB     60       POPC     C39      CTL2    -0.180000       12.0110           0
      8017 MEMB     60       POPC     H9X      HAL2     0.900000E-01   1.00800           0
      8018 MEMB     60       POPC     H9Y      HAL2     0.900000E-01   1.00800           0
      8019 MEMB     60       POPC     C310     CTL2    -0.180000       12.0110           0
      8020 MEMB     60       POPC     H10X     HAL2     0.900000E-01   1.00800           0
      8021 MEMB     60       POPC     H10Y     HAL2     0.900000E-01   1.00800           0
      8022 MEMB     60       POPC     C311     CTL2    -0.180000       12.0110           0
      8023 MEMB     60       POPC     H11X     HAL2     0.900000E-01   1.00800           0
      8024 MEMB     60       POPC     H11Y     HAL2     0.900000E-01   1.00800           0
      8025 MEMB     60       POPC     C312     CTL2    -0.180000       12.0110           0
      8026 MEMB     60       POPC     H12X     HAL2     0.900000E-01   1.00800           0
      8027 MEMB     60       POPC     H12Y     HAL2     0.900000E-01   1.00800           0
      8028 MEMB     60       POPC     C313     CTL2    -0.180000       12.0110           0
      8029 MEMB     60       POPC     H13X     HAL2     0.900000E-01   1.00800           0
      8030 MEMB     60       POPC     H13Y     HAL2     0.900000E-01   1.00800           0
      8031 MEMB     60       POPC     C314     CTL2    -0.180000       12.0110           0
      8032 MEMB     60       POPC     H14X     HAL2     0.900000E-01   1.00800           0
      8033 MEMB     60       POPC     H14Y     HAL2     0.900000E-01   1.00800           0
      8034 MEMB     60       POPC     C315     CTL2    -0.180000       12.0110           0
      8035 MEMB     60       POPC     H15X     HAL2     0.900000E-01   1.00800           0
      8036 MEMB     60       POPC     H15Y     HAL2     0.900000E-01   1.00800           0
      8037 MEMB     60       POPC     C316     CTL3    -0.270000       12.0110           0
      8038 MEMB     60       POPC     H16X     HAL3     0.900000E-01   1.00800           0
      8039 MEMB     60       POPC     H16Y     HAL3     0.900000E-01   1.00800           0
      8040 MEMB     60       POPC     H16Z     HAL3     0.900000E-01   1.00800           0
      8041 MEMB     61       POPC     N        NTL     -0.600000       14.0070           0
      8042 MEMB     61       POPC     C12      CTL2    -0.100000       12.0110           0
      8043 MEMB     61       POPC     H12A     HL       0.250000       1.00800           0
      8044 MEMB     61       POPC     H12B     HL       0.250000       1.00800           0
      8045 MEMB     61       POPC     C13      CTL5    -0.350000       12.0110           0
      8046 MEMB     61       POPC     H13A     HL       0.250000       1.00800           0
      8047 MEMB     61       POPC     H13B     HL       0.250000       1.00800           0
      8048 MEMB     61       POPC     H13C     HL       0.250000       1.00800           0
      8049 MEMB     61       POPC     C14      CTL5    -0.350000       12.0110           0
      8050 MEMB     61       POPC     H14A     HL       0.250000       1.00800           0
      8051 MEMB     61       POPC     H14B     HL       0.250000       1.00800           0
      8052 MEMB     61       POPC     H14C     HL       0.250000       1.00800           0
      8053 MEMB     61       POPC     C15      CTL5    -0.350000       12.0110           0
      8054 MEMB     61       POPC     H15A     HL       0.250000       1.00800           0
      8055 MEMB     61       POPC     H15B     HL       0.250000       1.00800           0
      8056 MEMB     61       POPC     H15C     HL       0.250000       1.00800           0
      8057 MEMB     61       POPC     C11      CTL2    -0.800000E-01   12.0110           0
      8058 MEMB     61       POPC     H11A     HAL2     0.900000E-01   1.00800           0
      8059 MEMB     61       POPC     H11B     HAL2     0.900000E-01   1.00800           0
      8060 MEMB     61       POPC     P        PL        1.50000       30.9740           0
      8061 MEMB     61       POPC     O13      O2L     -0.780000       15.9994           0
      8062 MEMB     61       POPC     O14      O2L     -0.780000       15.9994           0
      8063 MEMB     61       POPC     O12      OSLP    -0.570000       15.9994           0
      8064 MEMB     61       POPC     O11      OSLP    -0.570000       15.9994           0
      8065 MEMB     61       POPC     C1       CTL2    -0.800000E-01   12.0110           0
      8066 MEMB     61       POPC     HA       HAL2     0.900000E-01   1.00800           0
      8067 MEMB     61       POPC     HB       HAL2     0.900000E-01   1.00800           0
      8068 MEMB     61       POPC     C2       CTL1     0.170000       12.0110           0
      8069 MEMB     61       POPC     HS       HAL1     0.900000E-01   1.00800           0
      8070 MEMB     61       POPC     O21      OSL     -0.490000       15.9994           0
      8071 MEMB     61       POPC     C21      CL       0.900000       12.0110           0
      8072 MEMB     61       POPC     O22      OBL     -0.630000       15.9994           0
      8073 MEMB     61       POPC     C22      CTL2    -0.220000       12.0110           0
      8074 MEMB     61       POPC     H2R      HAL2     0.900000E-01   1.00800           0
      8075 MEMB     61       POPC     H2S      HAL2     0.900000E-01   1.00800           0
      8076 MEMB     61       POPC     C3       CTL2     0.800000E-01   12.0110           0
      8077 MEMB     61       POPC     HX       HAL2     0.900000E-01   1.00800           0
      8078 MEMB     61       POPC     HY       HAL2     0.900000E-01   1.00800           0
      8079 MEMB     61       POPC     O31      OSL     -0.490000       15.9994           0
      8080 MEMB     61       POPC     C31      CL       0.900000       12.0110           0
      8081 MEMB     61       POPC     O32      OBL     -0.630000       15.9994           0
      8082 MEMB     61       POPC     C32      CTL2    -0.220000       12.0110           0
      8083 MEMB     61       POPC     H2X      HAL2     0.900000E-01   1.00800           0
      8084 MEMB     61       POPC     H2Y      HAL2     0.900000E-01   1.00800           0
      8085 MEMB     61       POPC     C23      CTL2    -0.180000       12.0110           0
      8086 MEMB     61       POPC     H3R      HAL2     0.900000E-01   1.00800           0
      8087 MEMB     61       POPC     H3S      HAL2     0.900000E-01   1.00800           0
      8088 MEMB     61       POPC     C24      CTL2    -0.180000       12.0110           0
      8089 MEMB     61       POPC     H4R      HAL2     0.900000E-01   1.00800           0
      8090 MEMB     61       POPC     H4S      HAL2     0.900000E-01   1.00800           0
      8091 MEMB     61       POPC     C25      CTL2    -0.180000       12.0110           0
      8092 MEMB     61       POPC     H5R      HAL2     0.900000E-01   1.00800           0
      8093 MEMB     61       POPC     H5S      HAL2     0.900000E-01   1.00800           0
      8094 MEMB     61       POPC     C26      CTL2    -0.180000       12.0110           0
      8095 MEMB     61       POPC     H6R      HAL2     0.900000E-01   1.00800           0
      8096 MEMB     61       POPC     H6S      HAL2     0.900000E-01   1.00800           0
      8097 MEMB     61       POPC     C27      CTL2    -0.180000       12.0110           0
      8098 MEMB     61       POPC     H7R      HAL2     0.900000E-01   1.00800           0
      8099 MEMB     61       POPC     H7S      HAL2     0.900000E-01   1.00800           0
      8100 MEMB     61       POPC     C28      CTL2    -0.180000       12.0110           0
      8101 MEMB     61       POPC     H8R      HAL2     0.900000E-01   1.00800           0
      8102 MEMB     61       POPC     H8S      HAL2     0.900000E-01   1.00800           0
      8103 MEMB     61       POPC     C29      CEL1    -0.150000       12.0110           0
      8104 MEMB     61       POPC     H91      HEL1     0.150000       1.00800           0
      8105 MEMB     61       POPC     C210     CEL1    -0.150000       12.0110           0
      8106 MEMB     61       POPC     H101     HEL1     0.150000       1.00800           0
      8107 MEMB     61       POPC     C211     CTL2    -0.180000       12.0110           0
      8108 MEMB     61       POPC     H11R     HAL2     0.900000E-01   1.00800           0
      8109 MEMB     61       POPC     H11S     HAL2     0.900000E-01   1.00800           0
      8110 MEMB     61       POPC     C212     CTL2    -0.180000       12.0110           0
      8111 MEMB     61       POPC     H12R     HAL2     0.900000E-01   1.00800           0
      8112 MEMB     61       POPC     H12S     HAL2     0.900000E-01   1.00800           0
      8113 MEMB     61       POPC     C213     CTL2    -0.180000       12.0110           0
      8114 MEMB     61       POPC     H13R     HAL2     0.900000E-01   1.00800           0
      8115 MEMB     61       POPC     H13S     HAL2     0.900000E-01   1.00800           0
      8116 MEMB     61       POPC     C214     CTL2    -0.180000       12.0110           0
      8117 MEMB     61       POPC     H14R     HAL2     0.900000E-01   1.00800           0
      8118 MEMB     61       POPC     H14S     HAL2     0.900000E-01   1.00800           0
      8119 MEMB     61       POPC     C215     CTL2    -0.180000       12.0110           0
      8120 MEMB     61       POPC     H15R     HAL2     0.900000E-01   1.00800           0
      8121 MEMB     61       POPC     H15S     HAL2     0.900000E-01   1.00800           0
      8122 MEMB     61       POPC     C216     CTL2    -0.180000       12.0110           0
      8123 MEMB     61       POPC     H16R     HAL2     0.900000E-01   1.00800           0
      8124 MEMB     61       POPC     H16S     HAL2     0.900000E-01   1.00800           0
      8125 MEMB     61       POPC     C217     CTL2    -0.180000       12.0110           0
      8126 MEMB     61       POPC     H17R     HAL2     0.900000E-01   1.00800           0
      8127 MEMB     61       POPC     H17S     HAL2     0.900000E-01   1.00800           0
      8128 MEMB     61       POPC     C218     CTL3    -0.270000       12.0110           0
      8129 MEMB     61       POPC     H18R     HAL3     0.900000E-01   1.00800           0
      8130 MEMB     61       POPC     H18S     HAL3     0.900000E-01   1.00800           0
      8131 MEMB     61       POPC     H18T     HAL3     0.900000E-01   1.00800           0
      8132 MEMB     61       POPC     C33      CTL2    -0.180000       12.0110           0
      8133 MEMB     61       POPC     H3X      HAL2     0.900000E-01   1.00800           0
      8134 MEMB     61       POPC     H3Y      HAL2     0.900000E-01   1.00800           0
      8135 MEMB     61       POPC     C34      CTL2    -0.180000       12.0110           0
      8136 MEMB     61       POPC     H4X      HAL2     0.900000E-01   1.00800           0
      8137 MEMB     61       POPC     H4Y      HAL2     0.900000E-01   1.00800           0
      8138 MEMB     61       POPC     C35      CTL2    -0.180000       12.0110           0
      8139 MEMB     61       POPC     H5X      HAL2     0.900000E-01   1.00800           0
      8140 MEMB     61       POPC     H5Y      HAL2     0.900000E-01   1.00800           0
      8141 MEMB     61       POPC     C36      CTL2    -0.180000       12.0110           0
      8142 MEMB     61       POPC     H6X      HAL2     0.900000E-01   1.00800           0
      8143 MEMB     61       POPC     H6Y      HAL2     0.900000E-01   1.00800           0
      8144 MEMB     61       POPC     C37      CTL2    -0.180000       12.0110           0
      8145 MEMB     61       POPC     H7X      HAL2     0.900000E-01   1.00800           0
      8146 MEMB     61       POPC     H7Y      HAL2     0.900000E-01   1.00800           0
      8147 MEMB     61       POPC     C38      CTL2    -0.180000       12.0110           0
      8148 MEMB     61       POPC     H8X      HAL2     0.900000E-01   1.00800           0
      8149 MEMB     61       POPC     H8Y      HAL2     0.900000E-01   1.00800           0
      8150 MEMB     61       POPC     C39      CTL2    -0.180000       12.0110           0
      8151 MEMB     61       POPC     H9X      HAL2     0.900000E-01   1.00800           0
      8152 MEMB     61       POPC     H9Y      HAL2     0.900000E-01   1.00800           0
      8153 MEMB     61       POPC     C310     CTL2    -0.180000       12.0110           0
      8154 MEMB     61       POPC     H10X     HAL2     0.900000E-01   1.00800           0
      8155 MEMB     61       POPC     H10Y     HAL2     0.900000E-01   1.00800           0
      8156 MEMB     61       POPC     C311     CTL2    -0.180000       12.0110           0
      8157 MEMB     61       POPC     H11X     HAL2     0.900000E-01   1.00800           0
      8158 MEMB     61       POPC     H11Y     HAL2     0.900000E-01   1.00800           0
      8159 MEMB     61       POPC     C312     CTL2    -0.180000       12.0110           0
      8160 MEMB     61       POPC     H12X     HAL2     0.900000E-01   1.00800           0
      8161 MEMB     61       POPC     H12Y     HAL2     0.900000E-01   1.00800           0
      8162 MEMB     61       POPC     C313     CTL2    -0.180000       12.0110           0
      8163 MEMB     61       POPC     H13X     HAL2     0.900000E-01   1.00800           0
      8164 MEMB     61       POPC     H13Y     HAL2     0.900000E-01   1.00800           0
      8165 MEMB     61       POPC     C314     CTL2    -0.180000       12.0110           0
      8166 MEMB     61       POPC     H14X     HAL2     0.900000E-01   1.00800           0
      8167 MEMB     61       POPC     H14Y     HAL2     0.900000E-01   1.00800           0
      8168 MEMB     61       POPC     C315     CTL2    -0.180000       12.0110           0
      8169 MEMB     61       POPC     H15X     HAL2     0.900000E-01   1.00800           0
      8170 MEMB     61       POPC     H15Y     HAL2     0.900000E-01   1.00800           0
      8171 MEMB     61       POPC     C316     CTL3    -0.270000       12.0110           0
      8172 MEMB     61       POPC     H16X     HAL3     0.900000E-01   1.00800           0
      8173 MEMB     61       POPC     H16Y     HAL3     0.900000E-01   1.00800           0
      8174 MEMB     61       POPC     H16Z     HAL3     0.900000E-01   1.00800           0
      8175 MEMB     62       POPC     N        NTL     -0.600000       14.0070           0
      8176 MEMB     62       POPC     C12      CTL2    -0.100000       12.0110           0
      8177 MEMB     62       POPC     H12A     HL       0.250000       1.00800           0
      8178 MEMB     62       POPC     H12B     HL       0.250000       1.00800           0
      8179 MEMB     62       POPC     C13      CTL5    -0.350000       12.0110           0
      8180 MEMB     62       POPC     H13A     HL       0.250000       1.00800           0
      8181 MEMB     62       POPC     H13B     HL       0.250000       1.00800           0
      8182 MEMB     62       POPC     H13C     HL       0.250000       1.00800           0
      8183 MEMB     62       POPC     C14      CTL5    -0.350000       12.0110           0
      8184 MEMB     62       POPC     H14A     HL       0.250000       1.00800           0
      8185 MEMB     62       POPC     H14B     HL       0.250000       1.00800           0
      8186 MEMB     62       POPC     H14C     HL       0.250000       1.00800           0
      8187 MEMB     62       POPC     C15      CTL5    -0.350000       12.0110           0
      8188 MEMB     62       POPC     H15A     HL       0.250000       1.00800           0
      8189 MEMB     62       POPC     H15B     HL       0.250000       1.00800           0
      8190 MEMB     62       POPC     H15C     HL       0.250000       1.00800           0
      8191 MEMB     62       POPC     C11      CTL2    -0.800000E-01   12.0110           0
      8192 MEMB     62       POPC     H11A     HAL2     0.900000E-01   1.00800           0
      8193 MEMB     62       POPC     H11B     HAL2     0.900000E-01   1.00800           0
      8194 MEMB     62       POPC     P        PL        1.50000       30.9740           0
      8195 MEMB     62       POPC     O13      O2L     -0.780000       15.9994           0
      8196 MEMB     62       POPC     O14      O2L     -0.780000       15.9994           0
      8197 MEMB     62       POPC     O12      OSLP    -0.570000       15.9994           0
      8198 MEMB     62       POPC     O11      OSLP    -0.570000       15.9994           0
      8199 MEMB     62       POPC     C1       CTL2    -0.800000E-01   12.0110           0
      8200 MEMB     62       POPC     HA       HAL2     0.900000E-01   1.00800           0
      8201 MEMB     62       POPC     HB       HAL2     0.900000E-01   1.00800           0
      8202 MEMB     62       POPC     C2       CTL1     0.170000       12.0110           0
      8203 MEMB     62       POPC     HS       HAL1     0.900000E-01   1.00800           0
      8204 MEMB     62       POPC     O21      OSL     -0.490000       15.9994           0
      8205 MEMB     62       POPC     C21      CL       0.900000       12.0110           0
      8206 MEMB     62       POPC     O22      OBL     -0.630000       15.9994           0
      8207 MEMB     62       POPC     C22      CTL2    -0.220000       12.0110           0
      8208 MEMB     62       POPC     H2R      HAL2     0.900000E-01   1.00800           0
      8209 MEMB     62       POPC     H2S      HAL2     0.900000E-01   1.00800           0
      8210 MEMB     62       POPC     C3       CTL2     0.800000E-01   12.0110           0
      8211 MEMB     62       POPC     HX       HAL2     0.900000E-01   1.00800           0
      8212 MEMB     62       POPC     HY       HAL2     0.900000E-01   1.00800           0
      8213 MEMB     62       POPC     O31      OSL     -0.490000       15.9994           0
      8214 MEMB     62       POPC     C31      CL       0.900000       12.0110           0
      8215 MEMB     62       POPC     O32      OBL     -0.630000       15.9994           0
      8216 MEMB     62       POPC     C32      CTL2    -0.220000       12.0110           0
      8217 MEMB     62       POPC     H2X      HAL2     0.900000E-01   1.00800           0
      8218 MEMB     62       POPC     H2Y      HAL2     0.900000E-01   1.00800           0
      8219 MEMB     62       POPC     C23      CTL2    -0.180000       12.0110           0
      8220 MEMB     62       POPC     H3R      HAL2     0.900000E-01   1.00800           0
      8221 MEMB     62       POPC     H3S      HAL2     0.900000E-01   1.00800           0
      8222 MEMB     62       POPC     C24      CTL2    -0.180000       12.0110           0
      8223 MEMB     62       POPC     H4R      HAL2     0.900000E-01   1.00800           0
      8224 MEMB     62       POPC     H4S      HAL2     0.900000E-01   1.00800           0
      8225 MEMB     62       POPC     C25      CTL2    -0.180000       12.0110           0
      8226 MEMB     62       POPC     H5R      HAL2     0.900000E-01   1.00800           0
      8227 MEMB     62       POPC     H5S      HAL2     0.900000E-01   1.00800           0
      8228 MEMB     62       POPC     C26      CTL2    -0.180000       12.0110           0
      8229 MEMB     62       POPC     H6R      HAL2     0.900000E-01   1.00800           0
      8230 MEMB     62       POPC     H6S      HAL2     0.900000E-01   1.00800           0
      8231 MEMB     62       POPC     C27      CTL2    -0.180000       12.0110           0
      8232 MEMB     62       POPC     H7R      HAL2     0.900000E-01   1.00800           0
      8233 MEMB     62       POPC     H7S      HAL2     0.900000E-01   1.00800           0
      8234 MEMB     62       POPC     C28      CTL2    -0.180000       12.0110           0
      8235 MEMB     62       POPC     H8R      HAL2     0.900000E-01   1.00800           0
      8236 MEMB     62       POPC     H8S      HAL2     0.900000E-01   1.00800           0
      8237 MEMB     62       POPC     C29      CEL1    -0.150000       12.0110           0
      8238 MEMB     62       POPC     H91      HEL1     0.150000       1.00800           0
      8239 MEMB     62       POPC     C210     CEL1    -0.150000       12.0110           0
      8240 MEMB     62       POPC     H101     HEL1     0.150000       1.00800           0
      8241 MEMB     62       POPC     C211     CTL2    -0.180000       12.0110           0
      8242 MEMB     62       POPC     H11R     HAL2     0.900000E-01   1.00800           0
      8243 MEMB     62       POPC     H11S     HAL2     0.900000E-01   1.00800           0
      8244 MEMB     62       POPC     C212     CTL2    -0.180000       12.0110           0
      8245 MEMB     62       POPC     H12R     HAL2     0.900000E-01   1.00800           0
      8246 MEMB     62       POPC     H12S     HAL2     0.900000E-01   1.00800           0
      8247 MEMB     62       POPC     C213     CTL2    -0.180000       12.0110           0
      8248 MEMB     62       POPC     H13R     HAL2     0.900000E-01   1.00800           0
      8249 MEMB     62       POPC     H13S     HAL2     0.900000E-01   1.00800           0
      8250 MEMB     62       POPC     C214     CTL2    -0.180000       12.0110           0
      8251 MEMB     62       POPC     H14R     HAL2     0.900000E-01   1.00800           0
      8252 MEMB     62       POPC     H14S     HAL2     0.900000E-01   1.00800           0
      8253 MEMB     62       POPC     C215     CTL2    -0.180000       12.0110           0
      8254 MEMB     62       POPC     H15R     HAL2     0.900000E-01   1.00800           0
      8255 MEMB     62       POPC     H15S     HAL2     0.900000E-01   1.00800           0
      8256 MEMB     62       POPC     C216     CTL2    -0.180000       12.0110           0
      8257 MEMB     62       POPC     H16R     HAL2     0.900000E-01   1.00800           0
      8258 MEMB     62       POPC     H16S     HAL2     0.900000E-01   1.00800           0
      8259 MEMB     62       POPC     C217     CTL2    -0.180000       12.0110           0
      8260 MEMB     62       POPC     H17R     HAL2     0.900000E-01   1.00800           0
      8261 MEMB     62       POPC     H17S     HAL2     0.900000E-01   1.00800           0
      8262 MEMB     62       POPC     C218     CTL3    -0.270000       12.0110           0
      8263 MEMB     62       POPC     H18R     HAL3     0.900000E-01   1.00800           0
      8264 MEMB     62       POPC     H18S     HAL3     0.900000E-01   1.00800           0
      8265 MEMB     62       POPC     H18T     HAL3     0.900000E-01   1.00800           0
      8266 MEMB     62       POPC     C33      CTL2    -0.180000       12.0110           0
      8267 MEMB     62       POPC     H3X      HAL2     0.900000E-01   1.00800           0
      8268 MEMB     62       POPC     H3Y      HAL2     0.900000E-01   1.00800           0
      8269 MEMB     62       POPC     C34      CTL2    -0.180000       12.0110           0
      8270 MEMB     62       POPC     H4X      HAL2     0.900000E-01   1.00800           0
      8271 MEMB     62       POPC     H4Y      HAL2     0.900000E-01   1.00800           0
      8272 MEMB     62       POPC     C35      CTL2    -0.180000       12.0110           0
      8273 MEMB     62       POPC     H5X      HAL2     0.900000E-01   1.00800           0
      8274 MEMB     62       POPC     H5Y      HAL2     0.900000E-01   1.00800           0
      8275 MEMB     62       POPC     C36      CTL2    -0.180000       12.0110           0
      8276 MEMB     62       POPC     H6X      HAL2     0.900000E-01   1.00800           0
      8277 MEMB     62       POPC     H6Y      HAL2     0.900000E-01   1.00800           0
      8278 MEMB     62       POPC     C37      CTL2    -0.180000       12.0110           0
      8279 MEMB     62       POPC     H7X      HAL2     0.900000E-01   1.00800           0
      8280 MEMB     62       POPC     H7Y      HAL2     0.900000E-01   1.00800           0
      8281 MEMB     62       POPC     C38      CTL2    -0.180000       12.0110           0
      8282 MEMB     62       POPC     H8X      HAL2     0.900000E-01   1.00800           0
      8283 MEMB     62       POPC     H8Y      HAL2     0.900000E-01   1.00800           0
      8284 MEMB     62       POPC     C39      CTL2    -0.180000       12.0110           0
      8285 MEMB     62       POPC     H9X      HAL2     0.900000E-01   1.00800           0
      8286 MEMB     62       POPC     H9Y      HAL2     0.900000E-01   1.00800           0
      8287 MEMB     62       POPC     C310     CTL2    -0.180000       12.0110           0
      8288 MEMB     62       POPC     H10X     HAL2     0.900000E-01   1.00800           0
      8289 MEMB     62       POPC     H10Y     HAL2     0.900000E-01   1.00800           0
      8290 MEMB     62       POPC     C311     CTL2    -0.180000       12.0110           0
      8291 MEMB     62       POPC     H11X     HAL2     0.900000E-01   1.00800           0
      8292 MEMB     62       POPC     H11Y     HAL2     0.900000E-01   1.00800           0
      8293 MEMB     62       POPC     C312     CTL2    -0.180000       12.0110           0
      8294 MEMB     62       POPC     H12X     HAL2     0.900000E-01   1.00800           0
      8295 MEMB     62       POPC     H12Y     HAL2     0.900000E-01   1.00800           0
      8296 MEMB     62       POPC     C313     CTL2    -0.180000       12.0110           0
      8297 MEMB     62       POPC     H13X     HAL2     0.900000E-01   1.00800           0
      8298 MEMB     62       POPC     H13Y     HAL2     0.900000E-01   1.00800           0
      8299 MEMB     62       POPC     C314     CTL2    -0.180000       12.0110           0
      8300 MEMB     62       POPC     H14X     HAL2     0.900000E-01   1.00800           0
      8301 MEMB     62       POPC     H14Y     HAL2     0.900000E-01   1.00800           0
      8302 MEMB     62       POPC     C315     CTL2    -0.180000       12.0110           0
      8303 MEMB     62       POPC     H15X     HAL2     0.900000E-01   1.00800           0
      8304 MEMB     62       POPC     H15Y     HAL2     0.900000E-01   1.00800           0
      8305 MEMB     62       POPC     C316     CTL3    -0.270000       12.0110           0
      8306 MEMB     62       POPC     H16X     HAL3     0.900000E-01   1.00800           0
      8307 MEMB     62       POPC     H16Y     HAL3     0.900000E-01   1.00800           0
      8308 MEMB     62       POPC     H16Z     HAL3     0.900000E-01   1.00800           0
      8309 MEMB     63       POPC     N        NTL     -0.600000       14.0070           0
      8310 MEMB     63       POPC     C12      CTL2    -0.100000       12.0110           0
      8311 MEMB     63       POPC     H12A     HL       0.250000       1.00800           0
      8312 MEMB     63       POPC     H12B     HL       0.250000       1.00800           0
      8313 MEMB     63       POPC     C13      CTL5    -0.350000       12.0110           0
      8314 MEMB     63       POPC     H13A     HL       0.250000       1.00800           0
      8315 MEMB     63       POPC     H13B     HL       0.250000       1.00800           0
      8316 MEMB     63       POPC     H13C     HL       0.250000       1.00800           0
      8317 MEMB     63       POPC     C14      CTL5    -0.350000       12.0110           0
      8318 MEMB     63       POPC     H14A     HL       0.250000       1.00800           0
      8319 MEMB     63       POPC     H14B     HL       0.250000       1.00800           0
      8320 MEMB     63       POPC     H14C     HL       0.250000       1.00800           0
      8321 MEMB     63       POPC     C15      CTL5    -0.350000       12.0110           0
      8322 MEMB     63       POPC     H15A     HL       0.250000       1.00800           0
      8323 MEMB     63       POPC     H15B     HL       0.250000       1.00800           0
      8324 MEMB     63       POPC     H15C     HL       0.250000       1.00800           0
      8325 MEMB     63       POPC     C11      CTL2    -0.800000E-01   12.0110           0
      8326 MEMB     63       POPC     H11A     HAL2     0.900000E-01   1.00800           0
      8327 MEMB     63       POPC     H11B     HAL2     0.900000E-01   1.00800           0
      8328 MEMB     63       POPC     P        PL        1.50000       30.9740           0
      8329 MEMB     63       POPC     O13      O2L     -0.780000       15.9994           0
      8330 MEMB     63       POPC     O14      O2L     -0.780000       15.9994           0
      8331 MEMB     63       POPC     O12      OSLP    -0.570000       15.9994           0
      8332 MEMB     63       POPC     O11      OSLP    -0.570000       15.9994           0
      8333 MEMB     63       POPC     C1       CTL2    -0.800000E-01   12.0110           0
      8334 MEMB     63       POPC     HA       HAL2     0.900000E-01   1.00800           0
      8335 MEMB     63       POPC     HB       HAL2     0.900000E-01   1.00800           0
      8336 MEMB     63       POPC     C2       CTL1     0.170000       12.0110           0
      8337 MEMB     63       POPC     HS       HAL1     0.900000E-01   1.00800           0
      8338 MEMB     63       POPC     O21      OSL     -0.490000       15.9994           0
      8339 MEMB     63       POPC     C21      CL       0.900000       12.0110           0
      8340 MEMB     63       POPC     O22      OBL     -0.630000       15.9994           0
      8341 MEMB     63       POPC     C22      CTL2    -0.220000       12.0110           0
      8342 MEMB     63       POPC     H2R      HAL2     0.900000E-01   1.00800           0
      8343 MEMB     63       POPC     H2S      HAL2     0.900000E-01   1.00800           0
      8344 MEMB     63       POPC     C3       CTL2     0.800000E-01   12.0110           0
      8345 MEMB     63       POPC     HX       HAL2     0.900000E-01   1.00800           0
      8346 MEMB     63       POPC     HY       HAL2     0.900000E-01   1.00800           0
      8347 MEMB     63       POPC     O31      OSL     -0.490000       15.9994           0
      8348 MEMB     63       POPC     C31      CL       0.900000       12.0110           0
      8349 MEMB     63       POPC     O32      OBL     -0.630000       15.9994           0
      8350 MEMB     63       POPC     C32      CTL2    -0.220000       12.0110           0
      8351 MEMB     63       POPC     H2X      HAL2     0.900000E-01   1.00800           0
      8352 MEMB     63       POPC     H2Y      HAL2     0.900000E-01   1.00800           0
      8353 MEMB     63       POPC     C23      CTL2    -0.180000       12.0110           0
      8354 MEMB     63       POPC     H3R      HAL2     0.900000E-01   1.00800           0
      8355 MEMB     63       POPC     H3S      HAL2     0.900000E-01   1.00800           0
      8356 MEMB     63       POPC     C24      CTL2    -0.180000       12.0110           0
      8357 MEMB     63       POPC     H4R      HAL2     0.900000E-01   1.00800           0
      8358 MEMB     63       POPC     H4S      HAL2     0.900000E-01   1.00800           0
      8359 MEMB     63       POPC     C25      CTL2    -0.180000       12.0110           0
      8360 MEMB     63       POPC     H5R      HAL2     0.900000E-01   1.00800           0
      8361 MEMB     63       POPC     H5S      HAL2     0.900000E-01   1.00800           0
      8362 MEMB     63       POPC     C26      CTL2    -0.180000       12.0110           0
      8363 MEMB     63       POPC     H6R      HAL2     0.900000E-01   1.00800           0
      8364 MEMB     63       POPC     H6S      HAL2     0.900000E-01   1.00800           0
      8365 MEMB     63       POPC     C27      CTL2    -0.180000       12.0110           0
      8366 MEMB     63       POPC     H7R      HAL2     0.900000E-01   1.00800           0
      8367 MEMB     63       POPC     H7S      HAL2     0.900000E-01   1.00800           0
      8368 MEMB     63       POPC     C28      CTL2    -0.180000       12.0110           0
      8369 MEMB     63       POPC     H8R      HAL2     0.900000E-01   1.00800           0
      8370 MEMB     63       POPC     H8S      HAL2     0.900000E-01   1.00800           0
      8371 MEMB     63       POPC     C29      CEL1    -0.150000       12.0110           0
      8372 MEMB     63       POPC     H91      HEL1     0.150000       1.00800           0
      8373 MEMB     63       POPC     C210     CEL1    -0.150000       12.0110           0
      8374 MEMB     63       POPC     H101     HEL1     0.150000       1.00800           0
      8375 MEMB     63       POPC     C211     CTL2    -0.180000       12.0110           0
      8376 MEMB     63       POPC     H11R     HAL2     0.900000E-01   1.00800           0
      8377 MEMB     63       POPC     H11S     HAL2     0.900000E-01   1.00800           0
      8378 MEMB     63       POPC     C212     CTL2    -0.180000       12.0110           0
      8379 MEMB     63       POPC     H12R     HAL2     0.900000E-01   1.00800           0
      8380 MEMB     63       POPC     H12S     HAL2     0.900000E-01   1.00800           0
      8381 MEMB     63       POPC     C213     CTL2    -0.180000       12.0110           0
      8382 MEMB     63       POPC     H13R     HAL2     0.900000E-01   1.00800           0
      8383 MEMB     63       POPC     H13S     HAL2     0.900000E-01   1.00800           0
      8384 MEMB     63       POPC     C214     CTL2    -0.180000       12.0110           0
      8385 MEMB     63       POPC     H14R     HAL2     0.900000E-01   1.00800           0
      8386 MEMB     63       POPC     H14S     HAL2     0.900000E-01   1.00800           0
      8387 MEMB     63       POPC     C215     CTL2    -0.180000       12.0110           0
      8388 MEMB     63       POPC     H15R     HAL2     0.900000E-01   1.00800           0
      8389 MEMB     63       POPC     H15S     HAL2     0.900000E-01   1.00800           0
      8390 MEMB     63       POPC     C216     CTL2    -0.180000       12.0110           0
      8391 MEMB     63       POPC     H16R     HAL2     0.900000E-01   1.00800           0
      8392 MEMB     63       POPC     H16S     HAL2     0.900000E-01   1.00800           0
      8393 MEMB     63       POPC     C217     CTL2    -0.180000       12.0110           0
      8394 MEMB     63       POPC     H17R     HAL2     0.900000E-01   1.00800           0
      8395 MEMB     63       POPC     H17S     HAL2     0.900000E-01   1.00800           0
      8396 MEMB     63       POPC     C218     CTL3    -0.270000       12.0110           0
      8397 MEMB     63       POPC     H18R     HAL3     0.900000E-01   1.00800           0
      8398 MEMB     63       POPC     H18S     HAL3     0.900000E-01   1.00800           0
      8399 MEMB     63       POPC     H18T     HAL3     0.900000E-01   1.00800           0
      8400 MEMB     63       POPC     C33      CTL2    -0.180000       12.0110           0
      8401 MEMB     63       POPC     H3X      HAL2     0.900000E-01   1.00800           0
      8402 MEMB     63       POPC     H3Y      HAL2     0.900000E-01   1.00800           0
      8403 MEMB     63       POPC     C34      CTL2    -0.180000       12.0110           0
      8404 MEMB     63       POPC     H4X      HAL2     0.900000E-01   1.00800           0
      8405 MEMB     63       POPC     H4Y      HAL2     0.900000E-01   1.00800           0
      8406 MEMB     63       POPC     C35      CTL2    -0.180000       12.0110           0
      8407 MEMB     63       POPC     H5X      HAL2     0.900000E-01   1.00800           0
      8408 MEMB     63       POPC     H5Y      HAL2     0.900000E-01   1.00800           0
      8409 MEMB     63       POPC     C36      CTL2    -0.180000       12.0110           0
      8410 MEMB     63       POPC     H6X      HAL2     0.900000E-01   1.00800           0
      8411 MEMB     63       POPC     H6Y      HAL2     0.900000E-01   1.00800           0
      8412 MEMB     63       POPC     C37      CTL2    -0.180000       12.0110           0
      8413 MEMB     63       POPC     H7X      HAL2     0.900000E-01   1.00800           0
      8414 MEMB     63       POPC     H7Y      HAL2     0.900000E-01   1.00800           0
      8415 MEMB     63       POPC     C38      CTL2    -0.180000       12.0110           0
      8416 MEMB     63       POPC     H8X      HAL2     0.900000E-01   1.00800           0
      8417 MEMB     63       POPC     H8Y      HAL2     0.900000E-01   1.00800           0
      8418 MEMB     63       POPC     C39      CTL2    -0.180000       12.0110           0
      8419 MEMB     63       POPC     H9X      HAL2     0.900000E-01   1.00800           0
      8420 MEMB     63       POPC     H9Y      HAL2     0.900000E-01   1.00800           0
      8421 MEMB     63       POPC     C310     CTL2    -0.180000       12.0110           0
      8422 MEMB     63       POPC     H10X     HAL2     0.900000E-01   1.00800           0
      8423 MEMB     63       POPC     H10Y     HAL2     0.900000E-01   1.00800           0
      8424 MEMB     63       POPC     C311     CTL2    -0.180000       12.0110           0
      8425 MEMB     63       POPC     H11X     HAL2     0.900000E-01   1.00800           0
      8426 MEMB     63       POPC     H11Y     HAL2     0.900000E-01   1.00800           0
      8427 MEMB     63       POPC     C312     CTL2    -0.180000       12.0110           0
      8428 MEMB     63       POPC     H12X     HAL2     0.900000E-01   1.00800           0
      8429 MEMB     63       POPC     H12Y     HAL2     0.900000E-01   1.00800           0
      8430 MEMB     63       POPC     C313     CTL2    -0.180000       12.0110           0
      8431 MEMB     63       POPC     H13X     HAL2     0.900000E-01   1.00800           0
      8432 MEMB     63       POPC     H13Y     HAL2     0.900000E-01   1.00800           0
      8433 MEMB     63       POPC     C314     CTL2    -0.180000       12.0110           0
      8434 MEMB     63       POPC     H14X     HAL2     0.900000E-01   1.00800           0
      8435 MEMB     63       POPC     H14Y     HAL2     0.900000E-01   1.00800           0
      8436 MEMB     63       POPC     C315     CTL2    -0.180000       12.0110           0
      8437 MEMB     63       POPC     H15X     HAL2     0.900000E-01   1.00800           0
      8438 MEMB     63       POPC     H15Y     HAL2     0.900000E-01   1.00800           0
      8439 MEMB     63       POPC     C316     CTL3    -0.270000       12.0110           0
      8440 MEMB     63       POPC     H16X     HAL3     0.900000E-01   1.00800           0
      8441 MEMB     63       POPC     H16Y     HAL3     0.900000E-01   1.00800           0
      8442 MEMB     63       POPC     H16Z     HAL3     0.900000E-01   1.00800           0
      8443 MEMB     64       POPC     N        NTL     -0.600000       14.0070           0
      8444 MEMB     64       POPC     C12      CTL2    -0.100000       12.0110           0
      8445 MEMB     64       POPC     H12A     HL       0.250000       1.00800           0
      8446 MEMB     64       POPC     H12B     HL       0.250000       1.00800           0
      8447 MEMB     64       POPC     C13      CTL5    -0.350000       12.0110           0
      8448 MEMB     64       POPC     H13A     HL       0.250000       1.00800           0
      8449 MEMB     64       POPC     H13B     HL       0.250000       1.00800           0
      8450 MEMB     64       POPC     H13C     HL       0.250000       1.00800           0
      8451 MEMB     64       POPC     C14      CTL5    -0.350000       12.0110           0
      8452 MEMB     64       POPC     H14A     HL       0.250000       1.00800           0
      8453 MEMB     64       POPC     H14B     HL       0.250000       1.00800           0
      8454 MEMB     64       POPC     H14C     HL       0.250000       1.00800           0
      8455 MEMB     64       POPC     C15      CTL5    -0.350000       12.0110           0
      8456 MEMB     64       POPC     H15A     HL       0.250000       1.00800           0
      8457 MEMB     64       POPC     H15B     HL       0.250000       1.00800           0
      8458 MEMB     64       POPC     H15C     HL       0.250000       1.00800           0
      8459 MEMB     64       POPC     C11      CTL2    -0.800000E-01   12.0110           0
      8460 MEMB     64       POPC     H11A     HAL2     0.900000E-01   1.00800           0
      8461 MEMB     64       POPC     H11B     HAL2     0.900000E-01   1.00800           0
      8462 MEMB     64       POPC     P        PL        1.50000       30.9740           0
      8463 MEMB     64       POPC     O13      O2L     -0.780000       15.9994           0
      8464 MEMB     64       POPC     O14      O2L     -0.780000       15.9994           0
      8465 MEMB     64       POPC     O12      OSLP    -0.570000       15.9994           0
      8466 MEMB     64       POPC     O11      OSLP    -0.570000       15.9994           0
      8467 MEMB     64       POPC     C1       CTL2    -0.800000E-01   12.0110           0
      8468 MEMB     64       POPC     HA       HAL2     0.900000E-01   1.00800           0
      8469 MEMB     64       POPC     HB       HAL2     0.900000E-01   1.00800           0
      8470 MEMB     64       POPC     C2       CTL1     0.170000       12.0110           0
      8471 MEMB     64       POPC     HS       HAL1     0.900000E-01   1.00800           0
      8472 MEMB     64       POPC     O21      OSL     -0.490000       15.9994           0
      8473 MEMB     64       POPC     C21      CL       0.900000       12.0110           0
      8474 MEMB     64       POPC     O22      OBL     -0.630000       15.9994           0
      8475 MEMB     64       POPC     C22      CTL2    -0.220000       12.0110           0
      8476 MEMB     64       POPC     H2R      HAL2     0.900000E-01   1.00800           0
      8477 MEMB     64       POPC     H2S      HAL2     0.900000E-01   1.00800           0
      8478 MEMB     64       POPC     C3       CTL2     0.800000E-01   12.0110           0
      8479 MEMB     64       POPC     HX       HAL2     0.900000E-01   1.00800           0
      8480 MEMB     64       POPC     HY       HAL2     0.900000E-01   1.00800           0
      8481 MEMB     64       POPC     O31      OSL     -0.490000       15.9994           0
      8482 MEMB     64       POPC     C31      CL       0.900000       12.0110           0
      8483 MEMB     64       POPC     O32      OBL     -0.630000       15.9994           0
      8484 MEMB     64       POPC     C32      CTL2    -0.220000       12.0110           0
      8485 MEMB     64       POPC     H2X      HAL2     0.900000E-01   1.00800           0
      8486 MEMB     64       POPC     H2Y      HAL2     0.900000E-01   1.00800           0
      8487 MEMB     64       POPC     C23      CTL2    -0.180000       12.0110           0
      8488 MEMB     64       POPC     H3R      HAL2     0.900000E-01   1.00800           0
      8489 MEMB     64       POPC     H3S      HAL2     0.900000E-01   1.00800           0
      8490 MEMB     64       POPC     C24      CTL2    -0.180000       12.0110           0
      8491 MEMB     64       POPC     H4R      HAL2     0.900000E-01   1.00800           0
      8492 MEMB     64       POPC     H4S      HAL2     0.900000E-01   1.00800           0
      8493 MEMB     64       POPC     C25      CTL2    -0.180000       12.0110           0
      8494 MEMB     64       POPC     H5R      HAL2     0.900000E-01   1.00800           0
      8495 MEMB     64       POPC     H5S      HAL2     0.900000E-01   1.00800           0
      8496 MEMB     64       POPC     C26      CTL2    -0.180000       12.0110           0
      8497 MEMB     64       POPC     H6R      HAL2     0.900000E-01   1.00800           0
      8498 MEMB     64       POPC     H6S      HAL2     0.900000E-01   1.00800           0
      8499 MEMB     64       POPC     C27      CTL2    -0.180000       12.0110           0
      8500 MEMB     64       POPC     H7R      HAL2     0.900000E-01   1.00800           0
      8501 MEMB     64       POPC     H7S      HAL2     0.900000E-01   1.00800           0
      8502 MEMB     64       POPC     C28      CTL2    -0.180000       12.0110           0
      8503 MEMB     64       POPC     H8R      HAL2     0.900000E-01   1.00800           0
      8504 MEMB     64       POPC     H8S      HAL2     0.900000E-01   1.00800           0
      8505 MEMB     64       POPC     C29      CEL1    -0.150000       12.0110           0
      8506 MEMB     64       POPC     H91      HEL1     0.150000       1.00800           0
      8507 MEMB     64       POPC     C210     CEL1    -0.150000       12.0110           0
      8508 MEMB     64       POPC     H101     HEL1     0.150000       1.00800           0
      8509 MEMB     64       POPC     C211     CTL2    -0.180000       12.0110           0
      8510 MEMB     64       POPC     H11R     HAL2     0.900000E-01   1.00800           0
      8511 MEMB     64       POPC     H11S     HAL2     0.900000E-01   1.00800           0
      8512 MEMB     64       POPC     C212     CTL2    -0.180000       12.0110           0
      8513 MEMB     64       POPC     H12R     HAL2     0.900000E-01   1.00800           0
      8514 MEMB     64       POPC     H12S     HAL2     0.900000E-01   1.00800           0
      8515 MEMB     64       POPC     C213     CTL2    -0.180000       12.0110           0
      8516 MEMB     64       POPC     H13R     HAL2     0.900000E-01   1.00800           0
      8517 MEMB     64       POPC     H13S     HAL2     0.900000E-01   1.00800           0
      8518 MEMB     64       POPC     C214     CTL2    -0.180000       12.0110           0
      8519 MEMB     64       POPC     H14R     HAL2     0.900000E-01   1.00800           0
      8520 MEMB     64       POPC     H14S     HAL2     0.900000E-01   1.00800           0
      8521 MEMB     64       POPC     C215     CTL2    -0.180000       12.0110           0
      8522 MEMB     64       POPC     H15R     HAL2     0.900000E-01   1.00800           0
      8523 MEMB     64       POPC     H15S     HAL2     0.900000E-01   1.00800           0
      8524 MEMB     64       POPC     C216     CTL2    -0.180000       12.0110           0
      8525 MEMB     64       POPC     H16R     HAL2     0.900000E-01   1.00800           0
      8526 MEMB     64       POPC     H16S     HAL2     0.900000E-01   1.00800           0
      8527 MEMB     64       POPC     C217     CTL2    -0.180000       12.0110           0
      8528 MEMB     64       POPC     H17R     HAL2     0.900000E-01   1.00800           0
      8529 MEMB     64       POPC     H17S     HAL2     0.900000E-01   1.00800           0
      8530 MEMB     64       POPC     C218     CTL3    -0.270000       12.0110           0
      8531 MEMB     64       POPC     H18R     HAL3     0.900000E-01   1.00800           0
      8532 MEMB     64       POPC     H18S     HAL3     0.900000E-01   1.00800           0
      8533 MEMB     64       POPC     H18T     HAL3     0.900000E-01   1.00800           0
      8534 MEMB     64       POPC     C33      CTL2    -0.180000       12.0110           0
      8535 MEMB     64       POPC     H3X      HAL2     0.900000E-01   1.00800           0
      8536 MEMB     64       POPC     H3Y      HAL2     0.900000E-01   1.00800           0
      8537 MEMB     64       POPC     C34      CTL2    -0.180000       12.0110           0
      8538 MEMB     64       POPC     H4X      HAL2     0.900000E-01   1.00800           0
      8539 MEMB     64       POPC     H4Y      HAL2     0.900000E-01   1.00800           0
      8540 MEMB     64       POPC     C35      CTL2    -0.180000       12.0110           0
      8541 MEMB     64       POPC     H5X      HAL2     0.900000E-01   1.00800           0
      8542 MEMB     64       POPC     H5Y      HAL2     0.900000E-01   1.00800           0
      8543 MEMB     64       POPC     C36      CTL2    -0.180000       12.0110           0
      8544 MEMB     64       POPC     H6X      HAL2     0.900000E-01   1.00800           0
      8545 MEMB     64       POPC     H6Y      HAL2     0.900000E-01   1.00800           0
      8546 MEMB     64       POPC     C37      CTL2    -0.180000       12.0110           0
      8547 MEMB     64       POPC     H7X      HAL2     0.900000E-01   1.00800           0
      8548 MEMB     64       POPC     H7Y      HAL2     0.900000E-01   1.00800           0
      8549 MEMB     64       POPC     C38      CTL2    -0.180000       12.0110           0
      8550 MEMB     64       POPC     H8X      HAL2     0.900000E-01   1.00800           0
      8551 MEMB     64       POPC     H8Y      HAL2     0.900000E-01   1.00800           0
      8552 MEMB     64       POPC     C39      CTL2    -0.180000       12.0110           0
      8553 MEMB     64       POPC     H9X      HAL2     0.900000E-01   1.00800           0
      8554 MEMB     64       POPC     H9Y      HAL2     0.900000E-01   1.00800           0
      8555 MEMB     64       POPC     C310     CTL2    -0.180000       12.0110           0
      8556 MEMB     64       POPC     H10X     HAL2     0.900000E-01   1.00800           0
      8557 MEMB     64       POPC     H10Y     HAL2     0.900000E-01   1.00800           0
      8558 MEMB     64       POPC     C311     CTL2    -0.180000       12.0110           0
      8559 MEMB     64       POPC     H11X     HAL2     0.900000E-01   1.00800           0
      8560 MEMB     64       POPC     H11Y     HAL2     0.900000E-01   1.00800           0
      8561 MEMB     64       POPC     C312     CTL2    -0.180000       12.0110           0
      8562 MEMB     64       POPC     H12X     HAL2     0.900000E-01   1.00800           0
      8563 MEMB     64       POPC     H12Y     HAL2     0.900000E-01   1.00800           0
      8564 MEMB     64       POPC     C313     CTL2    -0.180000       12.0110           0
      8565 MEMB     64       POPC     H13X     HAL2     0.900000E-01   1.00800           0
      8566 MEMB     64       POPC     H13Y     HAL2     0.900000E-01   1.00800           0
      8567 MEMB     64       POPC     C314     CTL2    -0.180000       12.0110           0
      8568 MEMB     64       POPC     H14X     HAL2     0.900000E-01   1.00800           0
      8569 MEMB     64       POPC     H14Y     HAL2     0.900000E-01   1.00800           0
      8570 MEMB     64       POPC     C315     CTL2    -0.180000       12.0110           0
      8571 MEMB     64       POPC     H15X     HAL2     0.900000E-01   1.00800           0
      8572 MEMB     64       POPC     H15Y     HAL2     0.900000E-01   1.00800           0
      8573 MEMB     64       POPC     C316     CTL3    -0.270000       12.0110           0
      8574 MEMB     64       POPC     H16X     HAL3     0.900000E-01   1.00800           0
      8575 MEMB     64       POPC     H16Y     HAL3     0.900000E-01   1.00800           0
      8576 MEMB     64       POPC     H16Z     HAL3     0.900000E-01   1.00800           0
      8577 TIP3     1        TIP3     OH2      OT      -0.834000       15.9994           0
      8578 TIP3     1        TIP3     H1       HT       0.417000       1.00800           0
      8579 TIP3     1        TIP3     H2       HT       0.417000       1.00800           0
      8580 TIP3     2        TIP3     OH2      OT      -0.834000       15.9994           0
      8581 TIP3     2        TIP3     H1       HT       0.417000       1.00800           0
      8582 TIP3     2        TIP3     H2       HT       0.417000       1.00800           0
      8583 TIP3     3        TIP3     OH2      OT      -0.834000       15.9994           0
      8584 TIP3     3        TIP3     H1       HT       0.417000       1.00800           0
      8585 TIP3     3        TIP3     H2       HT       0.417000       1.00800           0
      8586 TIP3     4        TIP3     OH2      OT      -0.834000       15.9994           0
      8587 TIP3     4        TIP3     H1       HT       0.417000       1.00800           0
      8588 TIP3     4        TIP3     H2       HT       0.417000       1.00800           0
      8589 TIP3     5        TIP3     OH2      OT      -0.834000       15.9994           0
      8590 TIP3     5        TIP3     H1       HT       0.417000       1.00800           0
      8591 TIP3     5        TIP3     H2       HT       0.417000       1.00800           0
      8592 TIP3     6        TIP3     OH2      OT      -0.834000       15.9994           0
      8593 TIP3     6        TIP3     H1       HT       0.417000       1.00800           0
      8594 TIP3     6        TIP3     H2       HT       0.417000       1.00800           0
      8595 TIP3     7        TIP3     OH2      OT      -0.834000       15.9994           0
      8596 TIP3     7        TIP3     H1       HT       0.417000       1.00800           0
      8597 TIP3     7        TIP3     H2       HT       0.417000       1.00800           0
      8598 TIP3     8        TIP3     OH2      OT      -0.834000       15.9994           0
      8599 TIP3     8        TIP3     H1       HT       0.417000       1.00800           0
      8600 TIP3     8        TIP3     H2       HT       0.417000       1.00800           0
      8601 TIP3     9        TIP3     OH2      OT      -0.834000       15.9994           0
      8602 TIP3     9        TIP3     H1       HT       0.417000       1.00800           0
      8603 TIP3     9        TIP3     H2       HT       0.417000       1.00800           0
      8604 TIP3     10       TIP3     OH2      OT      -0.834000       15.9994           0
      8605 TIP3     10       TIP3     H1       HT       0.417000       1.00800           0
      8606 TIP3     10       TIP3     H2       HT       0.417000       1.00800           0
      8607 TIP3     11       TIP3     OH2      OT      -0.834000       15.9994           0
      8608 TIP3     11       TIP3     H1       HT       0.417000       1.00800           0
      8609 TIP3     11       TIP3     H2       HT       0.417000       1.00800           0
      8610 TIP3     12       TIP3     OH2      OT      -0.834000       15.9994           0
      8611 TIP3     12       TIP3     H1       HT       0.417000       1.00800           0
      8612 TIP3     12       TIP3     H2       HT       0.417000       1.00800           0
      8613 TIP3     13       TIP3     OH2      OT      -0.834000       15.9994           0
      8614 TIP3     13       TIP3     H1       HT       0.417000       1.00800           0
      8615 TIP3     13       TIP3     H2       HT       0.417000       1.00800           0
      8616 TIP3     14       TIP3     OH2      OT      -0.834000       15.9994           0
      8617 TIP3     14       TIP3     H1       HT       0.417000       1.00800           0
      8618 TIP3     14       TIP3     H2       HT       0.417000       1.00800           0
      8619 TIP3     15       TIP3     OH2      OT      -0.834000       15.9994           0
      8620 TIP3     15       TIP3     H1       HT       0.417000       1.00800           0
      8621 TIP3     15       TIP3     H2       HT       0.417000       1.00800           0
      8622 TIP3     16       TIP3     OH2      OT      -0.834000       15.9994           0
      8623 TIP3     16       TIP3     H1       HT       0.417000       1.00800           0
      8624 TIP3     16       TIP3     H2       HT       0.417000       1.00800           0
      8625 TIP3     17       TIP3     OH2      OT      -0.834000       15.9994           0
      8626 TIP3     17       TIP3     H1       HT       0.417000       1.00800           0
      8627 TIP3     17       TIP3     H2       HT       0.417000       1.00800           0
      8628 TIP3     18       TIP3     OH2      OT      -0.834000       15.9994           0
      8629 TIP3     18       TIP3     H1       HT       0.417000       1.00800           0
      8630 TIP3     18       TIP3     H2       HT       0.417000       1.00800           0
      8631 TIP3     19       TIP3     OH2      OT      -0.834000       15.9994           0
      8632 TIP3     19       TIP3     H1       HT       0.417000       1.00800           0
      8633 TIP3     19       TIP3     H2       HT       0.417000       1.00800           0
      8634 TIP3     20       TIP3     OH2      OT      -0.834000       15.9994           0
      8635 TIP3     20       TIP3     H1       HT       0.417000       1.00800           0
      8636 TIP3     20       TIP3     H2       HT       0.417000       1.00800           0
      8637 TIP3     21       TIP3     OH2      OT      -0.834000       15.9994           0
      8638 TIP3     21       TIP3     H1       HT       0.417000       1.00800           0
      8639 TIP3     21       TIP3     H2       HT       0.417000       1.00800           0
      8640 TIP3     22       TIP3     OH2      OT      -0.834000       15.9994           0
      8641 TIP3     22       TIP3     H1       HT       0.417000       1.00800           0
      8642 TIP3     22       TIP3     H2       HT       0.417000       1.00800           0
      8643 TIP3     23       TIP3     OH2      OT      -0.834000       15.9994           0
      8644 TIP3     23       TIP3     H1       HT       0.417000       1.00800           0
      8645 TIP3     23       TIP3     H2       HT       0.417000       1.00800           0
      8646 TIP3     24       TIP3     OH2      OT      -0.834000       15.9994           0
      8647 TIP3     24       TIP3     H1       HT       0.417000       1.00800           0
      8648 TIP3     24       TIP3     H2       HT       0.417000       1.00800           0
      8649 TIP3     25       TIP3     OH2      OT      -0.834000       15.9994           0
      8650 TIP3     25       TIP3     H1       HT       0.417000       1.00800           0
      8651 TIP3     25       TIP3     H2       HT       0.417000       1.00800           0
      8652 TIP3     26       TIP3     OH2      OT      -0.834000       15.9994           0
      8653 TIP3     26       TIP3     H1       HT       0.417000       1.00800           0
      8654 TIP3     26       TIP3     H2       HT       0.417000       1.00800           0
      8655 TIP3     27       TIP3     OH2      OT      -0.834000       15.9994           0
      8656 TIP3     27       TIP3     H1       HT       0.417000       1.00800           0
      8657 TIP3     27       TIP3     H2       HT       0.417000       1.00800           0
      8658 TIP3     28       TIP3     OH2      OT      -0.834000       15.9994           0
      8659 TIP3     28       TIP3     H1       HT       0.417000       1.00800           0
      8660 TIP3     28       TIP3     H2       HT       0.417000       1.00800           0
      8661 TIP3     29       TIP3     OH2      OT      -0.834000       15.9994           0
      8662 TIP3     29       TIP3     H1       HT       0.417000       1.00800           0
      8663 TIP3     29       TIP3     H2       HT       0.417000       1.00800           0
      8664 TIP3     30       TIP3     OH2      OT      -0.834000       15.9994           0
      8665 TIP3     30       TIP3     H1       HT       0.417000       1.00800           0
      8666 TIP3     30       TIP3     H2       HT       0.417000       1.00800           0
      8667 TIP3     31       TIP3     OH2      OT      -0.834000       15.9994           0
      8668 TIP3     31       TIP3     H1       HT       0.417000       1.00800           0
      8669 TIP3     31       TIP3     H2       HT       0.417000       1.00800           0
      8670 TIP3     32       TIP3     OH2      OT      -0.834000       15.9994           0
      8671 TIP3     32       TIP3     H1       HT       0.417000       1.00800           0
      8672 TIP3     32       TIP3     H2       HT       0.417000       1.00800           0
      8673 TIP3     33       TIP3     OH2      OT      -0.834000       15.9994           0
      8674 TIP3     33       TIP3     H1       HT       0.417000       1.00800           0
      8675 TIP3     33       TIP3     H2       HT       0.417000       1.00800           0
      8676 TIP3     34       TIP3     OH2      OT      -0.834000       15.9994           0
      8677 TIP3     34       TIP3     H1       HT       0.417000       1.00800           0
      8678 TIP3     34       TIP3     H2       HT       0.417000       1.00800           0
      8679 TIP3     35       TIP3     OH2      OT      -0.834000       15.9994           0
      8680 TIP3     35       TIP3     H1       HT       0.417000       1.00800           0
      8681 TIP3     35       TIP3     H2       HT       0.417000       1.00800           0
      8682 TIP3     36       TIP3     OH2      OT      -0.834000       15.9994           0
      8683 TIP3     36       TIP3     H1       HT       0.417000       1.00800           0
      8684 TIP3     36       TIP3     H2       HT       0.417000       1.00800           0
      8685 TIP3     37       TIP3     OH2      OT      -0.834000       15.9994           0
      8686 TIP3     37       TIP3     H1       HT       0.417000       1.00800           0
      8687 TIP3     37       TIP3     H2       HT       0.417000       1.00800           0
      8688 TIP3     38       TIP3     OH2      OT      -0.834000       15.9994           0
      8689 TIP3     38       TIP3     H1       HT       0.417000       1.00800           0
      8690 TIP3     38       TIP3     H2       HT       0.417000       1.00800           0
      8691 TIP3     39       TIP3     OH2      OT      -0.834000       15.9994           0
      8692 TIP3     39       TIP3     H1       HT       0.417000       1.00800           0
      8693 TIP3     39       TIP3     H2       HT       0.417000       1.00800           0
      8694 TIP3     40       TIP3     OH2      OT      -0.834000       15.9994           0
      8695 TIP3     40       TIP3     H1       HT       0.417000       1.00800           0
      8696 TIP3     40       TIP3     H2       HT       0.417000       1.00800           0
      8697 TIP3     41       TIP3     OH2      OT      -0.834000       15.9994           0
      8698 TIP3     41       TIP3     H1       HT       0.417000       1.00800           0
      8699 TIP3     41       TIP3     H2       HT       0.417000       1.00800           0
      8700 TIP3     42       TIP3     OH2      OT      -0.834000       15.9994           0
      8701 TIP3     42       TIP3     H1       HT       0.417000       1.00800           0
      8702 TIP3     42       TIP3     H2       HT       0.417000       1.00800           0
      8703 TIP3     43       TIP3     OH2      OT      -0.834000       15.9994           0
      8704 TIP3     43       TIP3     H1       HT       0.417000       1.00800           0
      8705 TIP3     43       TIP3     H2       HT       0.417000       1.00800           0
      8706 TIP3     44       TIP3     OH2      OT      -0.834000       15.9994           0
      8707 TIP3     44       TIP3     H1       HT       0.417000       1.00800           0
      8708 TIP3     44       TIP3     H2       HT       0.417000       1.00800           0
      8709 TIP3     45       TIP3     OH2      OT      -0.834000       15.9994           0
      8710 TIP3     45       TIP3     H1       HT       0.417000       1.00800           0
      8711 TIP3     45       TIP3     H2       HT       0.417000       1.00800           0
      8712 TIP3     46       TIP3     OH2      OT      -0.834000       15.9994           0
      8713 TIP3     46       TIP3     H1       HT       0.417000       1.00800           0
      8714 TIP3     46       TIP3     H2       HT       0.417000       1.00800           0
      8715 TIP3     47       TIP3     OH2      OT      -0.834000       15.9994           0
      8716 TIP3     47       TIP3     H1       HT       0.417000       1.00800           0
      8717 TIP3     47       TIP3     H2       HT       0.417000       1.00800           0
      8718 TIP3     48       TIP3     OH2      OT      -0.834000       15.9994           0
      8719 TIP3     48       TIP3     H1       HT       0.417000       1.00800           0
      8720 TIP3     48       TIP3     H2       HT       0.417000       1.00800           0
      8721 TIP3     49       TIP3     OH2      OT      -0.834000       15.9994           0
      8722 TIP3     49       TIP3     H1       HT       0.417000       1.00800           0
      8723 TIP3     49       TIP3     H2       HT       0.417000       1.00800           0
      8724 TIP3     50       TIP3     OH2      OT      -0.834000       15.9994           0
      8725 TIP3     50       TIP3     H1       HT       0.417000       1.00800           0
      8726 TIP3     50       TIP3     H2       HT       0.417000       1.00800           0
      8727 TIP3     51       TIP3     OH2      OT      -0.834000       15.9994           0
      8728 TIP3     51       TIP3     H1       HT       0.417000       1.00800           0
      8729 TIP3     51       TIP3     H2       HT       0.417000       1.00800           0
      8730 TIP3     52       TIP3     OH2      OT      -0.834000       15.9994           0
      8731 TIP3     52       TIP3     H1       HT       0.417000       1.00800           0
      8732 TIP3     52       TIP3     H2       HT       0.417000       1.00800           0
      8733 TIP3     53       TIP3     OH2      OT      -0.834000       15.9994           0
      8734 TIP3     53       TIP3     H1       HT       0.417000       1.00800           0
      8735 TIP3     53       TIP3     H2       HT       0.417000       1.00800           0
      8736 TIP3     54       TIP3     OH2      OT      -0.834000       15.9994           0
      8737 TIP3     54       TIP3     H1       HT       0.417000       1.00800           0
      8738 TIP3     54       TIP3     H2       HT       0.417000       1.00800           0
      8739 TIP3     55       TIP3     OH2      OT      -0.834000       15.9994           0
      8740 TIP3     55       TIP3     H1       HT       0.417000       1.00800           0
      8741 TIP3     55       TIP3     H2       HT       0.417000       1.00800           0
      8742 TIP3     56       TIP3     OH2      OT      -0.834000       15.9994           0
      8743 TIP3     56       TIP3     H1       HT       0.417000       1.00800           0
      8744 TIP3     56       TIP3     H2       HT       0.417000       1.00800           0
      8745 TIP3     57       TIP3     OH2      OT      -0.834000       15.9994           0
      8746 TIP3     57       TIP3     H1       HT       0.417000       1.00800           0
      8747 TIP3     57       TIP3     H2       HT       0.417000       1.00800           0
      8748 TIP3     58       TIP3     OH2      OT      -0.834000       15.9994           0
      8749 TIP3     58       TIP3     H1       HT       0.417000       1.00800           0
      8750 TIP3     58       TIP3     H2       HT       0.417000       1.00800           0
      8751 TIP3     59       TIP3     OH2      OT      -0.834000       15.9994           0
      8752 TIP3     59       TIP3     H1       HT       0.417000       1.00800           0
      8753 TIP3     59       TIP3     H2       HT       0.417000       1.00800           0
      8754 TIP3     60       TIP3     OH2      OT      -0.834000       15.9994           0
      8755 TIP3     60       TIP3     H1       HT       0.417000       1.00800           0
      8756 TIP3     60       TIP3     H2       HT       0.417000       1.00800           0
      8757 TIP3     61       TIP3     OH2      OT      -0.834000       15.9994           0
      8758 TIP3     61       TIP3     H1       HT       0.417000       1.00800           0
      8759 TIP3     61       TIP3     H2       HT       0.417000       1.00800           0
      8760 TIP3     62       TIP3     OH2      OT      -0.834000       15.9994           0
      8761 TIP3     62       TIP3     H1       HT       0.417000       1.00800           0
      8762 TIP3     62       TIP3     H2       HT       0.417000       1.00800           0
      8763 TIP3     63       TIP3     OH2      OT      -0.834000       15.9994           0
      8764 TIP3     63       TIP3     H1       HT       0.417000       1.00800           0
      8765 TIP3     63       TIP3     H2       HT       0.417000       1.00800           0
      8766 TIP3     64       TIP3     OH2      OT      -0.834000       15.9994           0
      8767 TIP3     64       TIP3     H1       HT       0.417000       1.00800           0
      8768 TIP3     64       TIP3     H2       HT       0.417000       1.00800           0
      8769 TIP3     65       TIP3     OH2      OT      -0.834000       15.9994           0
      8770 TIP3     65       TIP3     H1       HT       0.417000       1.00800           0
      8771 TIP3     65       TIP3     H2       HT       0.417000       1.00800           0
      8772 TIP3     66       TIP3     OH2      OT      -0.834000       15.9994           0
      8773 TIP3     66       TIP3     H1       HT       0.417000       1.00800           0
      8774 TIP3     66       TIP3     H2       HT       0.417000       1.00800           0
      8775 TIP3     67       TIP3     OH2      OT      -0.834000       15.9994           0
      8776 TIP3     67       TIP3     H1       HT       0.417000       1.00800           0
      8777 TIP3     67       TIP3     H2       HT       0.417000       1.00800           0
      8778 TIP3     68       TIP3     OH2      OT      -0.834000       15.9994           0
      8779 TIP3     68       TIP3     H1       HT       0.417000       1.00800           0
      8780 TIP3     68       TIP3     H2       HT       0.417000       1.00800           0
      8781 TIP3     69       TIP3     OH2      OT      -0.834000       15.9994           0
      8782 TIP3     69       TIP3     H1       HT       0.417000       1.00800           0
      8783 TIP3     69       TIP3     H2       HT       0.417000       1.00800           0
      8784 TIP3     70       TIP3     OH2      OT      -0.834000       15.9994           0
      8785 TIP3     70       TIP3     H1       HT       0.417000       1.00800           0
      8786 TIP3     70       TIP3     H2       HT       0.417000       1.00800           0
      8787 TIP3     71       TIP3     OH2      OT      -0.834000       15.9994           0
      8788 TIP3     71       TIP3     H1       HT       0.417000       1.00800           0
      8789 TIP3     71       TIP3     H2       HT       0.417000       1.00800           0
      8790 TIP3     72       TIP3     OH2      OT      -0.834000       15.9994           0
      8791 TIP3     72       TIP3     H1       HT       0.417000       1.00800           0
      8792 TIP3     72       TIP3     H2       HT       0.417000       1.00800           0
      8793 TIP3     73       TIP3     OH2      OT      -0.834000       15.9994           0
      8794 TIP3     73       TIP3     H1       HT       0.417000       1.00800           0
      8795 TIP3     73       TIP3     H2       HT       0.417000       1.00800           0
      8796 TIP3     74       TIP3     OH2      OT      -0.834000       15.9994           0
      8797 TIP3     74       TIP3     H1       HT       0.417000       1.00800           0
      8798 TIP3     74       TIP3     H2       HT       0.417000       1.00800           0
      8799 TIP3     75       TIP3     OH2      OT      -0.834000       15.9994           0
      8800 TIP3     75       TIP3     H1       HT       0.417000       1.00800           0
      8801 TIP3     75       TIP3     H2       HT       0.417000       1.00800           0
      8802 TIP3     76       TIP3     OH2      OT      -0.834000       15.9994           0
      8803 TIP3     76       TIP3     H1       HT       0.417000       1.00800           0
      8804 TIP3     76       TIP3     H2       HT       0.417000       1.00800           0
      8805 TIP3     77       TIP3     OH2      OT      -0.834000       15.9994           0
      8806 TIP3     77       TIP3     H1       HT       0.417000       1.00800           0
      8807 TIP3     77       TIP3     H2       HT       0.417000       1.00800           0
      8808 TIP3     78       TIP3     OH2      OT      -0.834000       15.9994           0
      8809 TIP3     78       TIP3     H1       HT       0.417000       1.00800           0
      8810 TIP3     78       TIP3     H2       HT       0.417000       1.00800           0
      8811 TIP3     79       TIP3     OH2      OT      -0.834000       15.9994           0
      8812 TIP3     79       TIP3     H1       HT       0.417000       1.00800           0
      8813 TIP3     79       TIP3     H2       HT       0.417000       1.00800           0
      8814 TIP3     80       TIP3     OH2      OT      -0.834000       15.9994           0
      8815 TIP3     80       TIP3     H1       HT       0.417000       1.00800           0
      8816 TIP3     80       TIP3     H2       HT       0.417000       1.00800           0
      8817 TIP3     81       TIP3     OH2      OT      -0.834000       15.9994           0
      8818 TIP3     81       TIP3     H1       HT       0.417000       1.00800           0
      8819 TIP3     81       TIP3     H2       HT       0.417000       1.00800           0
      8820 TIP3     82       TIP3     OH2      OT      -0.834000       15.9994           0
      8821 TIP3     82       TIP3     H1       HT       0.417000       1.00800           0
      8822 TIP3     82       TIP3     H2       HT       0.417000       1.00800           0
      8823 TIP3     83       TIP3     OH2      OT      -0.834000       15.9994           0
      8824 TIP3     83       TIP3     H1       HT       0.417000       1.00800           0
      8825 TIP3     83       TIP3     H2       HT       0.417000       1.00800           0
      8826 TIP3     84       TIP3     OH2      OT      -0.834000       15.9994           0
      8827 TIP3     84       TIP3     H1       HT       0.417000       1.00800           0
      8828 TIP3     84       TIP3     H2       HT       0.417000       1.00800           0
      8829 TIP3     85       TIP3     OH2      OT      -0.834000       15.9994           0
      8830 TIP3     85       TIP3     H1       HT       0.417000       1.00800           0
      8831 TIP3     85       TIP3     H2       HT       0.417000       1.00800           0
      8832 TIP3     86       TIP3     OH2      OT      -0.834000       15.9994           0
      8833 TIP3     86       TIP3     H1       HT       0.417000       1.00800           0
      8834 TIP3     86       TIP3     H2       HT       0.417000       1.00800           0
      8835 TIP3     87       TIP3     OH2      OT      -0.834000       15.9994           0
      8836 TIP3     87       TIP3     H1       HT       0.417000       1.00800           0
      8837 TIP3     87       TIP3     H2       HT       0.417000       1.00800           0
      8838 TIP3     88       TIP3     OH2      OT      -0.834000       15.9994           0
      8839 TIP3     88       TIP3     H1       HT       0.417000       1.00800           0
      8840 TIP3     88       TIP3     H2       HT       0.417000       1.00800           0
      8841 TIP3     89       TIP3     OH2      OT      -0.834000       15.9994           0
      8842 TIP3     89       TIP3     H1       HT       0.417000       1.00800           0
      8843 TIP3     89       TIP3     H2       HT       0.417000       1.00800           0
      8844 TIP3     90       TIP3     OH2      OT      -0.834000       15.9994           0
      8845 TIP3     90       TIP3     H1       HT       0.417000       1.00800           0
      8846 TIP3     90       TIP3     H2       HT       0.417000       1.00800           0
      8847 TIP3     91       TIP3     OH2      OT      -0.834000       15.9994           0
      8848 TIP3     91       TIP3     H1       HT       0.417000       1.00800           0
      8849 TIP3     91       TIP3     H2       HT       0.417000       1.00800           0
      8850 TIP3     92       TIP3     OH2      OT      -0.834000       15.9994           0
      8851 TIP3     92       TIP3     H1       HT       0.417000       1.00800           0
      8852 TIP3     92       TIP3     H2       HT       0.417000       1.00800           0
      8853 TIP3     93       TIP3     OH2      OT      -0.834000       15.9994           0
      8854 TIP3     93       TIP3     H1       HT       0.417000       1.00800           0
      8855 TIP3     93       TIP3     H2       HT       0.417000       1.00800           0
      8856 TIP3     94       TIP3     OH2      OT      -0.834000       15.9994           0
      8857 TIP3     94       TIP3     H1       HT       0.417000       1.00800           0
      8858 TIP3     94       TIP3     H2       HT       0.417000       1.00800           0
      8859 TIP3     95       TIP3     OH2      OT      -0.834000       15.9994           0
      8860 TIP3     95       TIP3     H1       HT       0.417000       1.00800           0
      8861 TIP3     95       TIP3     H2       HT       0.417000       1.00800           0
      8862 TIP3     96       TIP3     OH2      OT      -0.834000       15.9994           0
      8863 TIP3     96       TIP3     H1       HT       0.417000       1.00800           0
      8864 TIP3     96       TIP3     H2       HT       0.417000       1.00800           0
      8865 TIP3     97       TIP3     OH2      OT      -0.834000       15.9994           0
      8866 TIP3     97       TIP3     H1       HT       0.417000       1.00800           0
      8867 TIP3     97       TIP3     H2       HT       0.417000       1.00800           0
      8868 TIP3     98       TIP3     OH2      OT      -0.834000       15.9994           0
      8869 TIP3     98       TIP3     H1       HT       0.417000       1.00800           0
      8870 TIP3     98       TIP3     H2       HT       0.417000       1.00800           0
      8871 TIP3     99       TIP3     OH2      OT      -0.834000       15.9994           0
      8872 TIP3     99       TIP3     H1       HT       0.417000       1.00800           0
      8873 TIP3     99       TIP3     H2       HT       0.417000       1.00800           0
      8874 TIP3     100      TIP3     OH2      OT      -0.834000       15.9994           0
      8875 TIP3     100      TIP3     H1       HT       0.417000       1.00800           0
      8876 TIP3     100      TIP3     H2       HT       0.417000       1.00800           0
      8877 TIP3     101      TIP3     OH2      OT      -0.834000       15.9994           0
      8878 TIP3     101      TIP3     H1       HT       0.417000       1.00800           0
      8879 TIP3     101      TIP3     H2       HT       0.417000       1.00800           0
      8880 TIP3     102      TIP3     OH2      OT      -0.834000       15.9994           0
      8881 TIP3     102      TIP3     H1       HT       0.417000       1.00800           0
      8882 TIP3     102      TIP3     H2       HT       0.417000       1.00800           0
      8883 TIP3     103      TIP3     OH2      OT      -0.834000       15.9994           0
      8884 TIP3     103      TIP3     H1       HT       0.417000       1.00800           0
      8885 TIP3     103      TIP3     H2       HT       0.417000       1.00800           0
      8886 TIP3     104      TIP3     OH2      OT      -0.834000       15.9994           0
      8887 TIP3     104      TIP3     H1       HT       0.417000       1.00800           0
      8888 TIP3     104      TIP3     H2       HT       0.417000       1.00800           0
      8889 TIP3     105      TIP3     OH2      OT      -0.834000       15.9994           0
      8890 TIP3     105      TIP3     H1       HT       0.417000       1.00800           0
      8891 TIP3     105      TIP3     H2       HT       0.417000       1.00800           0
      8892 TIP3     106      TIP3     OH2      OT      -0.834000       15.9994           0
      8893 TIP3     106      TIP3     H1       HT       0.417000       1.00800           0
      8894 TIP3     106      TIP3     H2       HT       0.417000       1.00800           0
      8895 TIP3     107      TIP3     OH2      OT      -0.834000       15.9994           0
      8896 TIP3     107      TIP3     H1       HT       0.417000       1.00800           0
      8897 TIP3     107      TIP3     H2       HT       0.417000       1.00800           0
      8898 TIP3     108      TIP3     OH2      OT      -0.834000       15.9994           0
      8899 TIP3     108      TIP3     H1       HT       0.417000       1.00800           0
      8900 TIP3     108      TIP3     H2       HT       0.417000       1.00800           0
      8901 TIP3     109      TIP3     OH2      OT      -0.834000       15.9994           0
      8902 TIP3     109      TIP3     H1       HT       0.417000       1.00800           0
      8903 TIP3     109      TIP3     H2       HT       0.417000       1.00800           0
      8904 TIP3     110      TIP3     OH2      OT      -0.834000       15.9994           0
      8905 TIP3     110      TIP3     H1       HT       0.417000       1.00800           0
      8906 TIP3     110      TIP3     H2       HT       0.417000       1.00800           0
      8907 TIP3     111      TIP3     OH2      OT      -0.834000       15.9994           0
      8908 TIP3     111      TIP3     H1       HT       0.417000       1.00800           0
      8909 TIP3     111      TIP3     H2       HT       0.417000       1.00800           0
      8910 TIP3     112      TIP3     OH2      OT      -0.834000       15.9994           0
      8911 TIP3     112      TIP3     H1       HT       0.417000       1.00800           0
      8912 TIP3     112      TIP3     H2       HT       0.417000       1.00800           0
      8913 TIP3     113      TIP3     OH2      OT      -0.834000       15.9994           0
      8914 TIP3     113      TIP3     H1       HT       0.417000       1.00800           0
      8915 TIP3     113      TIP3     H2       HT       0.417000       1.00800           0
      8916 TIP3     114      TIP3     OH2      OT      -0.834000       15.9994           0
      8917 TIP3     114      TIP3     H1       HT       0.417000       1.00800           0
      8918 TIP3     114      TIP3     H2       HT       0.417000       1.00800           0
      8919 TIP3     115      TIP3     OH2      OT      -0.834000       15.9994           0
      8920 TIP3     115      TIP3     H1       HT       0.417000       1.00800           0
      8921 TIP3     115      TIP3     H2       HT       0.417000       1.00800           0
      8922 TIP3     116      TIP3     OH2      OT      -0.834000       15.9994           0
      8923 TIP3     116      TIP3     H1       HT       0.417000       1.00800           0
      8924 TIP3     116      TIP3     H2       HT       0.417000       1.00800           0
      8925 TIP3     117      TIP3     OH2      OT      -0.834000       15.9994           0
      8926 TIP3     117      TIP3     H1       HT       0.417000       1.00800           0
      8927 TIP3     117      TIP3     H2       HT       0.417000       1.00800           0
      8928 TIP3     118      TIP3     OH2      OT      -0.834000       15.9994           0
      8929 TIP3     118      TIP3     H1       HT       0.417000       1.00800           0
      8930 TIP3     118      TIP3     H2       HT       0.417000       1.00800           0
      8931 TIP3     119      TIP3     OH2      OT      -0.834000       15.9994           0
      8932 TIP3     119      TIP3     H1       HT       0.417000       1.00800           0
      8933 TIP3     119      TIP3     H2       HT       0.417000       1.00800           0
      8934 TIP3     120      TIP3     OH2      OT      -0.834000       15.9994           0
      8935 TIP3     120      TIP3     H1       HT       0.417000       1.00800           0
      8936 TIP3     120      TIP3     H2       HT       0.417000       1.00800           0
      8937 TIP3     121      TIP3     OH2      OT      -0.834000       15.9994           0
      8938 TIP3     121      TIP3     H1       HT       0.417000       1.00800           0
      8939 TIP3     121      TIP3     H2       HT       0.417000       1.00800           0
      8940 TIP3     122      TIP3     OH2      OT      -0.834000       15.9994           0
      8941 TIP3     122      TIP3     H1       HT       0.417000       1.00800           0
      8942 TIP3     122      TIP3     H2       HT       0.417000       1.00800           0
      8943 TIP3     123      TIP3     OH2      OT      -0.834000       15.9994           0
      8944 TIP3     123      TIP3     H1       HT       0.417000       1.00800           0
      8945 TIP3     123      TIP3     H2       HT       0.417000       1.00800           0
      8946 TIP3     124      TIP3     OH2      OT      -0.834000       15.9994           0
      8947 TIP3     124      TIP3     H1       HT       0.417000       1.00800           0
      8948 TIP3     124      TIP3     H2       HT       0.417000       1.00800           0
      8949 TIP3     125      TIP3     OH2      OT      -0.834000       15.9994           0
      8950 TIP3     125      TIP3     H1       HT       0.417000       1.00800           0
      8951 TIP3     125      TIP3     H2       HT       0.417000       1.00800           0
      8952 TIP3     126      TIP3     OH2      OT      -0.834000       15.9994           0
      8953 TIP3     126      TIP3     H1       HT       0.417000       1.00800           0
      8954 TIP3     126      TIP3     H2       HT       0.417000       1.00800           0
      8955 TIP3     127      TIP3     OH2      OT      -0.834000       15.9994           0
      8956 TIP3     127      TIP3     H1       HT       0.417000       1.00800           0
      8957 TIP3     127      TIP3     H2       HT       0.417000       1.00800           0
      8958 TIP3     128      TIP3     OH2      OT      -0.834000       15.9994           0
      8959 TIP3     128      TIP3     H1       HT       0.417000       1.00800           0
      8960 TIP3     128      TIP3     H2       HT       0.417000       1.00800           0
      8961 TIP3     129      TIP3     OH2      OT      -0.834000       15.9994           0
      8962 TIP3     129      TIP3     H1       HT       0.417000       1.00800           0
      8963 TIP3     129      TIP3     H2       HT       0.417000       1.00800           0
      8964 TIP3     130      TIP3     OH2      OT      -0.834000       15.9994           0
      8965 TIP3     130      TIP3     H1       HT       0.417000       1.00800           0
      8966 TIP3     130      TIP3     H2       HT       0.417000       1.00800           0
      8967 TIP3     131      TIP3     OH2      OT      -0.834000       15.9994           0
      8968 TIP3     131      TIP3     H1       HT       0.417000       1.00800           0
      8969 TIP3     131      TIP3     H2       HT       0.417000       1.00800           0
      8970 TIP3     132      TIP3     OH2      OT      -0.834000       15.9994           0
      8971 TIP3     132      TIP3     H1       HT       0.417000       1.00800           0
      8972 TIP3     132      TIP3     H2       HT       0.417000       1.00800           0
      8973 TIP3     133      TIP3     OH2      OT      -0.834000       15.9994           0
      8974 TIP3     133      TIP3     H1       HT       0.417000       1.00800           0
      8975 TIP3     133      TIP3     H2       HT       0.417000       1.00800           0
      8976 TIP3     134      TIP3     OH2      OT      -0.834000       15.9994           0
      8977 TIP3     134      TIP3     H1       HT       0.417000       1.00800           0
      8978 TIP3     134      TIP3     H2       HT       0.417000       1.00800           0
      8979 TIP3     135      TIP3     OH2      OT      -0.834000       15.9994           0
      8980 TIP3     135      TIP3     H1       HT       0.417000       1.00800           0
      8981 TIP3     135      TIP3     H2       HT       0.417000       1.00800           0
      8982 TIP3     136      TIP3     OH2      OT      -0.834000       15.9994           0
      8983 TIP3     136      TIP3     H1       HT       0.417000       1.00800           0
      8984 TIP3     136      TIP3     H2       HT       0.417000       1.00800           0
      8985 TIP3     137      TIP3     OH2      OT      -0.834000       15.9994           0
      8986 TIP3     137      TIP3     H1       HT       0.417000       1.00800           0
      8987 TIP3     137      TIP3     H2       HT       0.417000       1.00800           0
      8988 TIP3     138      TIP3     OH2      OT      -0.834000       15.9994           0
      8989 TIP3     138      TIP3     H1       HT       0.417000       1.00800           0
      8990 TIP3     138      TIP3     H2       HT       0.417000       1.00800           0
      8991 TIP3     139      TIP3     OH2      OT      -0.834000       15.9994           0
      8992 TIP3     139      TIP3     H1       HT       0.417000       1.00800           0
      8993 TIP3     139      TIP3     H2       HT       0.417000       1.00800           0
      8994 TIP3     140      TIP3     OH2      OT      -0.834000       15.9994           0
      8995 TIP3     140      TIP3     H1       HT       0.417000       1.00800           0
      8996 TIP3     140      TIP3     H2       HT       0.417000       1.00800           0
      8997 TIP3     141      TIP3     OH2      OT      -0.834000       15.9994           0
      8998 TIP3     141      TIP3     H1       HT       0.417000       1.00800           0
      8999 TIP3     141      TIP3     H2       HT       0.417000       1.00800           0
      9000 TIP3     142      TIP3     OH2      OT      -0.834000       15.9994           0
      9001 TIP3     142      TIP3     H1       HT       0.417000       1.00800           0
      9002 TIP3     142      TIP3     H2       HT       0.417000       1.00800           0
      9003 TIP3     143      TIP3     OH2      OT      -0.834000       15.9994           0
      9004 TIP3     143      TIP3     H1       HT       0.417000       1.00800           0
      9005 TIP3     143      TIP3     H2       HT       0.417000       1.00800           0
      9006 TIP3     144      TIP3     OH2      OT      -0.834000       15.9994           0
      9007 TIP3     144      TIP3     H1       HT       0.417000       1.00800           0
      9008 TIP3     144      TIP3     H2       HT       0.417000       1.00800           0
      9009 TIP3     145      TIP3     OH2      OT      -0.834000       15.9994           0
      9010 TIP3     145      TIP3     H1       HT       0.417000       1.00800           0
      9011 TIP3     145      TIP3     H2       HT       0.417000       1.00800           0
      9012 TIP3     146      TIP3     OH2      OT      -0.834000       15.9994           0
      9013 TIP3     146      TIP3     H1       HT       0.417000       1.00800           0
      9014 TIP3     146      TIP3     H2       HT       0.417000       1.00800           0
      9015 TIP3     147      TIP3     OH2      OT      -0.834000       15.9994           0
      9016 TIP3     147      TIP3     H1       HT       0.417000       1.00800           0
      9017 TIP3     147      TIP3     H2       HT       0.417000       1.00800           0
      9018 TIP3     148      TIP3     OH2      OT      -0.834000       15.9994           0
      9019 TIP3     148      TIP3     H1       HT       0.417000       1.00800           0
      9020 TIP3     148      TIP3     H2       HT       0.417000       1.00800           0
      9021 TIP3     149      TIP3     OH2      OT      -0.834000       15.9994           0
      9022 TIP3     149      TIP3     H1       HT       0.417000       1.00800           0
      9023 TIP3     149      TIP3     H2       HT       0.417000       1.00800           0
      9024 TIP3     150      TIP3     OH2      OT      -0.834000       15.9994           0
      9025 TIP3     150      TIP3     H1       HT       0.417000       1.00800           0
      9026 TIP3     150      TIP3     H2       HT       0.417000       1.00800           0
      9027 TIP3     151      TIP3     OH2      OT      -0.834000       15.9994           0
      9028 TIP3     151      TIP3     H1       HT       0.417000       1.00800           0
      9029 TIP3     151      TIP3     H2       HT       0.417000       1.00800           0
      9030 TIP3     152      TIP3     OH2      OT      -0.834000       15.9994           0
      9031 TIP3     152      TIP3     H1       HT       0.417000       1.00800           0
      9032 TIP3     152      TIP3     H2       HT       0.417000       1.00800           0
      9033 TIP3     153      TIP3     OH2      OT      -0.834000       15.9994           0
      9034 TIP3     153      TIP3     H1       HT       0.417000       1.00800           0
      9035 TIP3     153      TIP3     H2       HT       0.417000       1.00800           0
      9036 TIP3     154      TIP3     OH2      OT      -0.834000       15.9994           0
      9037 TIP3     154      TIP3     H1       HT       0.417000       1.00800           0
      9038 TIP3     154      TIP3     H2       HT       0.417000       1.00800           0
      9039 TIP3     155      TIP3     OH2      OT      -0.834000       15.9994           0
      9040 TIP3     155      TIP3     H1       HT       0.417000       1.00800           0
      9041 TIP3     155      TIP3     H2       HT       0.417000       1.00800           0
      9042 TIP3     156      TIP3     OH2      OT      -0.834000       15.9994           0
      9043 TIP3     156      TIP3     H1       HT       0.417000       1.00800           0
      9044 TIP3     156      TIP3     H2       HT       0.417000       1.00800           0
      9045 TIP3     157      TIP3     OH2      OT      -0.834000       15.9994           0
      9046 TIP3     157      TIP3     H1       HT       0.417000       1.00800           0
      9047 TIP3     157      TIP3     H2       HT       0.417000       1.00800           0
      9048 TIP3     158      TIP3     OH2      OT      -0.834000       15.9994           0
      9049 TIP3     158      TIP3     H1       HT       0.417000       1.00800           0
      9050 TIP3     158      TIP3     H2       HT       0.417000       1.00800           0
      9051 TIP3     159      TIP3     OH2      OT      -0.834000       15.9994           0
      9052 TIP3     159      TIP3     H1       HT       0.417000       1.00800           0
      9053 TIP3     159      TIP3     H2       HT       0.417000       1.00800           0
      9054 TIP3     160      TIP3     OH2      OT      -0.834000       15.9994           0
      9055 TIP3     160      TIP3     H1       HT       0.417000       1.00800           0
      9056 TIP3     160      TIP3     H2       HT       0.417000       1.00800           0
      9057 TIP3     161      TIP3     OH2      OT      -0.834000       15.9994           0
      9058 TIP3     161      TIP3     H1       HT       0.417000       1.00800           0
      9059 TIP3     161      TIP3     H2       HT       0.417000       1.00800           0
      9060 TIP3     162      TIP3     OH2      OT      -0.834000       15.9994           0
      9061 TIP3     162      TIP3     H1       HT       0.417000       1.00800           0
      9062 TIP3     162      TIP3     H2       HT       0.417000       1.00800           0
      9063 TIP3     163      TIP3     OH2      OT      -0.834000       15.9994           0
      9064 TIP3     163      TIP3     H1       HT       0.417000       1.00800           0
      9065 TIP3     163      TIP3     H2       HT       0.417000       1.00800           0
      9066 TIP3     164      TIP3     OH2      OT      -0.834000       15.9994           0
      9067 TIP3     164      TIP3     H1       HT       0.417000       1.00800           0
      9068 TIP3     164      TIP3     H2       HT       0.417000       1.00800           0
      9069 TIP3     165      TIP3     OH2      OT      -0.834000       15.9994           0
      9070 TIP3     165      TIP3     H1       HT       0.417000       1.00800           0
      9071 TIP3     165      TIP3     H2       HT       0.417000       1.00800           0
      9072 TIP3     166      TIP3     OH2      OT      -0.834000       15.9994           0
      9073 TIP3     166      TIP3     H1       HT       0.417000       1.00800           0
      9074 TIP3     166      TIP3     H2       HT       0.417000       1.00800           0
      9075 TIP3     167      TIP3     OH2      OT      -0.834000       15.9994           0
      9076 TIP3     167      TIP3     H1       HT       0.417000       1.00800           0
      9077 TIP3     167      TIP3     H2       HT       0.417000       1.00800           0
      9078 TIP3     168      TIP3     OH2      OT      -0.834000       15.9994           0
      9079 TIP3     168      TIP3     H1       HT       0.417000       1.00800           0
      9080 TIP3     168      TIP3     H2       HT       0.417000       1.00800           0
      9081 TIP3     169      TIP3     OH2      OT      -0.834000       15.9994           0
      9082 TIP3     169      TIP3     H1       HT       0.417000       1.00800           0
      9083 TIP3     169      TIP3     H2       HT       0.417000       1.00800           0
      9084 TIP3     170      TIP3     OH2      OT      -0.834000       15.9994           0
      9085 TIP3     170      TIP3     H1       HT       0.417000       1.00800           0
      9086 TIP3     170      TIP3     H2       HT       0.417000       1.00800           0
      9087 TIP3     171      TIP3     OH2      OT      -0.834000       15.9994           0
      9088 TIP3     171      TIP3     H1       HT       0.417000       1.00800           0
      9089 TIP3     171      TIP3     H2       HT       0.417000       1.00800           0
      9090 TIP3     172      TIP3     OH2      OT      -0.834000       15.9994           0
      9091 TIP3     172      TIP3     H1       HT       0.417000       1.00800           0
      9092 TIP3     172      TIP3     H2       HT       0.417000       1.00800           0
      9093 TIP3     173      TIP3     OH2      OT      -0.834000       15.9994           0
      9094 TIP3     173      TIP3     H1       HT       0.417000       1.00800           0
      9095 TIP3     173      TIP3     H2       HT       0.417000       1.00800           0
      9096 TIP3     174      TIP3     OH2      OT      -0.834000       15.9994           0
      9097 TIP3     174      TIP3     H1       HT       0.417000       1.00800           0
      9098 TIP3     174      TIP3     H2       HT       0.417000       1.00800           0
      9099 TIP3     175      TIP3     OH2      OT      -0.834000       15.9994           0
      9100 TIP3     175      TIP3     H1       HT       0.417000       1.00800           0
      9101 TIP3     175      TIP3     H2       HT       0.417000       1.00800           0
      9102 TIP3     176      TIP3     OH2      OT      -0.834000       15.9994           0
      9103 TIP3     176      TIP3     H1       HT       0.417000       1.00800           0
      9104 TIP3     176      TIP3     H2       HT       0.417000       1.00800           0
      9105 TIP3     177      TIP3     OH2      OT      -0.834000       15.9994           0
      9106 TIP3     177      TIP3     H1       HT       0.417000       1.00800           0
      9107 TIP3     177      TIP3     H2       HT       0.417000       1.00800           0
      9108 TIP3     178      TIP3     OH2      OT      -0.834000       15.9994           0
      9109 TIP3     178      TIP3     H1       HT       0.417000       1.00800           0
      9110 TIP3     178      TIP3     H2       HT       0.417000       1.00800           0
      9111 TIP3     179      TIP3     OH2      OT      -0.834000       15.9994           0
      9112 TIP3     179      TIP3     H1       HT       0.417000       1.00800           0
      9113 TIP3     179      TIP3     H2       HT       0.417000       1.00800           0
      9114 TIP3     180      TIP3     OH2      OT      -0.834000       15.9994           0
      9115 TIP3     180      TIP3     H1       HT       0.417000       1.00800           0
      9116 TIP3     180      TIP3     H2       HT       0.417000       1.00800           0
      9117 TIP3     181      TIP3     OH2      OT      -0.834000       15.9994           0
      9118 TIP3     181      TIP3     H1       HT       0.417000       1.00800           0
      9119 TIP3     181      TIP3     H2       HT       0.417000       1.00800           0
      9120 TIP3     182      TIP3     OH2      OT      -0.834000       15.9994           0
      9121 TIP3     182      TIP3     H1       HT       0.417000       1.00800           0
      9122 TIP3     182      TIP3     H2       HT       0.417000       1.00800           0
      9123 TIP3     183      TIP3     OH2      OT      -0.834000       15.9994           0
      9124 TIP3     183      TIP3     H1       HT       0.417000       1.00800           0
      9125 TIP3     183      TIP3     H2       HT       0.417000       1.00800           0
      9126 TIP3     184      TIP3     OH2      OT      -0.834000       15.9994           0
      9127 TIP3     184      TIP3     H1       HT       0.417000       1.00800           0
      9128 TIP3     184      TIP3     H2       HT       0.417000       1.00800           0
      9129 TIP3     185      TIP3     OH2      OT      -0.834000       15.9994           0
      9130 TIP3     185      TIP3     H1       HT       0.417000       1.00800           0
      9131 TIP3     185      TIP3     H2       HT       0.417000       1.00800           0
      9132 TIP3     186      TIP3     OH2      OT      -0.834000       15.9994           0
      9133 TIP3     186      TIP3     H1       HT       0.417000       1.00800           0
      9134 TIP3     186      TIP3     H2       HT       0.417000       1.00800           0
      9135 TIP3     187      TIP3     OH2      OT      -0.834000       15.9994           0
      9136 TIP3     187      TIP3     H1       HT       0.417000       1.00800           0
      9137 TIP3     187      TIP3     H2       HT       0.417000       1.00800           0
      9138 TIP3     188      TIP3     OH2      OT      -0.834000       15.9994           0
      9139 TIP3     188      TIP3     H1       HT       0.417000       1.00800           0
      9140 TIP3     188      TIP3     H2       HT       0.417000       1.00800           0
      9141 TIP3     189      TIP3     OH2      OT      -0.834000       15.9994           0
      9142 TIP3     189      TIP3     H1       HT       0.417000       1.00800           0
      9143 TIP3     189      TIP3     H2       HT       0.417000       1.00800           0
      9144 TIP3     190      TIP3     OH2      OT      -0.834000       15.9994           0
      9145 TIP3     190      TIP3     H1       HT       0.417000       1.00800           0
      9146 TIP3     190      TIP3     H2       HT       0.417000       1.00800           0
      9147 TIP3     191      TIP3     OH2      OT      -0.834000       15.9994           0
      9148 TIP3     191      TIP3     H1       HT       0.417000       1.00800           0
      9149 TIP3     191      TIP3     H2       HT       0.417000       1.00800           0
      9150 TIP3     192      TIP3     OH2      OT      -0.834000       15.9994           0
      9151 TIP3     192      TIP3     H1       HT       0.417000       1.00800           0
      9152 TIP3     192      TIP3     H2       HT       0.417000       1.00800           0
      9153 TIP3     193      TIP3     OH2      OT      -0.834000       15.9994           0
      9154 TIP3     193      TIP3     H1       HT       0.417000       1.00800           0
      9155 TIP3     193      TIP3     H2       HT       0.417000       1.00800           0
      9156 TIP3     194      TIP3     OH2      OT      -0.834000       15.9994           0
      9157 TIP3     194      TIP3     H1       HT       0.417000       1.00800           0
      9158 TIP3     194      TIP3     H2       HT       0.417000       1.00800           0
      9159 TIP3     195      TIP3     OH2      OT      -0.834000       15.9994           0
      9160 TIP3     195      TIP3     H1       HT       0.417000       1.00800           0
      9161 TIP3     195      TIP3     H2       HT       0.417000       1.00800           0
      9162 TIP3     196      TIP3     OH2      OT      -0.834000       15.9994           0
      9163 TIP3     196      TIP3     H1       HT       0.417000       1.00800           0
      9164 TIP3     196      TIP3     H2       HT       0.417000       1.00800           0
      9165 TIP3     197      TIP3     OH2      OT      -0.834000       15.9994           0
      9166 TIP3     197      TIP3     H1       HT       0.417000       1.00800           0
      9167 TIP3     197      TIP3     H2       HT       0.417000       1.00800           0
      9168 TIP3     198      TIP3     OH2      OT      -0.834000       15.9994           0
      9169 TIP3     198      TIP3     H1       HT       0.417000       1.00800           0
      9170 TIP3     198      TIP3     H2       HT       0.417000       1.00800           0
      9171 TIP3     199      TIP3     OH2      OT      -0.834000       15.9994           0
      9172 TIP3     199      TIP3     H1       HT       0.417000       1.00800           0
      9173 TIP3     199      TIP3     H2       HT       0.417000       1.00800           0
      9174 TIP3     200      TIP3     OH2      OT      -0.834000       15.9994           0
      9175 TIP3     200      TIP3     H1       HT       0.417000       1.00800           0
      9176 TIP3     200      TIP3     H2       HT       0.417000       1.00800           0
      9177 TIP3     201      TIP3     OH2      OT      -0.834000       15.9994           0
      9178 TIP3     201      TIP3     H1       HT       0.417000       1.00800           0
      9179 TIP3     201      TIP3     H2       HT       0.417000       1.00800           0
      9180 TIP3     202      TIP3     OH2      OT      -0.834000       15.9994           0
      9181 TIP3     202      TIP3     H1       HT       0.417000       1.00800           0
      9182 TIP3     202      TIP3     H2       HT       0.417000       1.00800           0
      9183 TIP3     203      TIP3     OH2      OT      -0.834000       15.9994           0
      9184 TIP3     203      TIP3     H1       HT       0.417000       1.00800           0
      9185 TIP3     203      TIP3     H2       HT       0.417000       1.00800           0
      9186 TIP3     204      TIP3     OH2      OT      -0.834000       15.9994           0
      9187 TIP3     204      TIP3     H1       HT       0.417000       1.00800           0
      9188 TIP3     204      TIP3     H2       HT       0.417000       1.00800           0
      9189 TIP3     205      TIP3     OH2      OT      -0.834000       15.9994           0
      9190 TIP3     205      TIP3     H1       HT       0.417000       1.00800           0
      9191 TIP3     205      TIP3     H2       HT       0.417000       1.00800           0
      9192 TIP3     206      TIP3     OH2      OT      -0.834000       15.9994           0
      9193 TIP3     206      TIP3     H1       HT       0.417000       1.00800           0
      9194 TIP3     206      TIP3     H2       HT       0.417000       1.00800           0
      9195 TIP3     207      TIP3     OH2      OT      -0.834000       15.9994           0
      9196 TIP3     207      TIP3     H1       HT       0.417000       1.00800           0
      9197 TIP3     207      TIP3     H2       HT       0.417000       1.00800           0
      9198 TIP3     208      TIP3     OH2      OT      -0.834000       15.9994           0
      9199 TIP3     208      TIP3     H1       HT       0.417000       1.00800           0
      9200 TIP3     208      TIP3     H2       HT       0.417000       1.00800           0
      9201 TIP3     209      TIP3     OH2      OT      -0.834000       15.9994           0
      9202 TIP3     209      TIP3     H1       HT       0.417000       1.00800           0
      9203 TIP3     209      TIP3     H2       HT       0.417000       1.00800           0
      9204 TIP3     210      TIP3     OH2      OT      -0.834000       15.9994           0
      9205 TIP3     210      TIP3     H1       HT       0.417000       1.00800           0
      9206 TIP3     210      TIP3     H2       HT       0.417000       1.00800           0
      9207 TIP3     211      TIP3     OH2      OT      -0.834000       15.9994           0
      9208 TIP3     211      TIP3     H1       HT       0.417000       1.00800           0
      9209 TIP3     211      TIP3     H2       HT       0.417000       1.00800           0
      9210 TIP3     212      TIP3     OH2      OT      -0.834000       15.9994           0
      9211 TIP3     212      TIP3     H1       HT       0.417000       1.00800           0
      9212 TIP3     212      TIP3     H2       HT       0.417000       1.00800           0
      9213 TIP3     213      TIP3     OH2      OT      -0.834000       15.9994           0
      9214 TIP3     213      TIP3     H1       HT       0.417000       1.00800           0
      9215 TIP3     213      TIP3     H2       HT       0.417000       1.00800           0
      9216 TIP3     214      TIP3     OH2      OT      -0.834000       15.9994           0
      9217 TIP3     214      TIP3     H1       HT       0.417000       1.00800           0
      9218 TIP3     214      TIP3     H2       HT       0.417000       1.00800           0
      9219 TIP3     215      TIP3     OH2      OT      -0.834000       15.9994           0
      9220 TIP3     215      TIP3     H1       HT       0.417000       1.00800           0
      9221 TIP3     215      TIP3     H2       HT       0.417000       1.00800           0
      9222 TIP3     216      TIP3     OH2      OT      -0.834000       15.9994           0
      9223 TIP3     216      TIP3     H1       HT       0.417000       1.00800           0
      9224 TIP3     216      TIP3     H2       HT       0.417000       1.00800           0
      9225 TIP3     217      TIP3     OH2      OT      -0.834000       15.9994           0
      9226 TIP3     217      TIP3     H1       HT       0.417000       1.00800           0
      9227 TIP3     217      TIP3     H2       HT       0.417000       1.00800           0
      9228 TIP3     218      TIP3     OH2      OT      -0.834000       15.9994           0
      9229 TIP3     218      TIP3     H1       HT       0.417000       1.00800           0
      9230 TIP3     218      TIP3     H2       HT       0.417000       1.00800           0
      9231 TIP3     219      TIP3     OH2      OT      -0.834000       15.9994           0
      9232 TIP3     219      TIP3     H1       HT       0.417000       1.00800           0
      9233 TIP3     219      TIP3     H2       HT       0.417000       1.00800           0
      9234 TIP3     220      TIP3     OH2      OT      -0.834000       15.9994           0
      9235 TIP3     220      TIP3     H1       HT       0.417000       1.00800           0
      9236 TIP3     220      TIP3     H2       HT       0.417000       1.00800           0
      9237 TIP3     221      TIP3     OH2      OT      -0.834000       15.9994           0
      9238 TIP3     221      TIP3     H1       HT       0.417000       1.00800           0
      9239 TIP3     221      TIP3     H2       HT       0.417000       1.00800           0
      9240 TIP3     222      TIP3     OH2      OT      -0.834000       15.9994           0
      9241 TIP3     222      TIP3     H1       HT       0.417000       1.00800           0
      9242 TIP3     222      TIP3     H2       HT       0.417000       1.00800           0
      9243 TIP3     223      TIP3     OH2      OT      -0.834000       15.9994           0
      9244 TIP3     223      TIP3     H1       HT       0.417000       1.00800           0
      9245 TIP3     223      TIP3     H2       HT       0.417000       1.00800           0
      9246 TIP3     224      TIP3     OH2      OT      -0.834000       15.9994           0
      9247 TIP3     224      TIP3     H1       HT       0.417000       1.00800           0
      9248 TIP3     224      TIP3     H2       HT       0.417000       1.00800           0
      9249 TIP3     225      TIP3     OH2      OT      -0.834000       15.9994           0
      9250 TIP3     225      TIP3     H1       HT       0.417000       1.00800           0
      9251 TIP3     225      TIP3     H2       HT       0.417000       1.00800           0
      9252 TIP3     226      TIP3     OH2      OT      -0.834000       15.9994           0
      9253 TIP3     226      TIP3     H1       HT       0.417000       1.00800           0
      9254 TIP3     226      TIP3     H2       HT       0.417000       1.00800           0
      9255 TIP3     227      TIP3     OH2      OT      -0.834000       15.9994           0
      9256 TIP3     227      TIP3     H1       HT       0.417000       1.00800           0
      9257 TIP3     227      TIP3     H2       HT       0.417000       1.00800           0
      9258 TIP3     228      TIP3     OH2      OT      -0.834000       15.9994           0
      9259 TIP3     228      TIP3     H1       HT       0.417000       1.00800           0
      9260 TIP3     228      TIP3     H2       HT       0.417000       1.00800           0
      9261 TIP3     229      TIP3     OH2      OT      -0.834000       15.9994           0
      9262 TIP3     229      TIP3     H1       HT       0.417000       1.00800           0
      9263 TIP3     229      TIP3     H2       HT       0.417000       1.00800           0
      9264 TIP3     230      TIP3     OH2      OT      -0.834000       15.9994           0
      9265 TIP3     230      TIP3     H1       HT       0.417000       1.00800           0
      9266 TIP3     230      TIP3     H2       HT       0.417000       1.00800           0
      9267 TIP3     231      TIP3     OH2      OT      -0.834000       15.9994           0
      9268 TIP3     231      TIP3     H1       HT       0.417000       1.00800           0
      9269 TIP3     231      TIP3     H2       HT       0.417000       1.00800           0
      9270 TIP3     232      TIP3     OH2      OT      -0.834000       15.9994           0
      9271 TIP3     232      TIP3     H1       HT       0.417000       1.00800           0
      9272 TIP3     232      TIP3     H2       HT       0.417000       1.00800           0
      9273 TIP3     233      TIP3     OH2      OT      -0.834000       15.9994           0
      9274 TIP3     233      TIP3     H1       HT       0.417000       1.00800           0
      9275 TIP3     233      TIP3     H2       HT       0.417000       1.00800           0
      9276 TIP3     234      TIP3     OH2      OT      -0.834000       15.9994           0
      9277 TIP3     234      TIP3     H1       HT       0.417000       1.00800           0
      9278 TIP3     234      TIP3     H2       HT       0.417000       1.00800           0
      9279 TIP3     235      TIP3     OH2      OT      -0.834000       15.9994           0
      9280 TIP3     235      TIP3     H1       HT       0.417000       1.00800           0
      9281 TIP3     235      TIP3     H2       HT       0.417000       1.00800           0
      9282 TIP3     236      TIP3     OH2      OT      -0.834000       15.9994           0
      9283 TIP3     236      TIP3     H1       HT       0.417000       1.00800           0
      9284 TIP3     236      TIP3     H2       HT       0.417000       1.00800           0
      9285 TIP3     237      TIP3     OH2      OT      -0.834000       15.9994           0
      9286 TIP3     237      TIP3     H1       HT       0.417000       1.00800           0
      9287 TIP3     237      TIP3     H2       HT       0.417000       1.00800           0
      9288 TIP3     238      TIP3     OH2      OT      -0.834000       15.9994           0
      9289 TIP3     238      TIP3     H1       HT       0.417000       1.00800           0
      9290 TIP3     238      TIP3     H2       HT       0.417000       1.00800           0
      9291 TIP3     239      TIP3     OH2      OT      -0.834000       15.9994           0
      9292 TIP3     239      TIP3     H1       HT       0.417000       1.00800           0
      9293 TIP3     239      TIP3     H2       HT       0.417000       1.00800           0
      9294 TIP3     240      TIP3     OH2      OT      -0.834000       15.9994           0
      9295 TIP3     240      TIP3     H1       HT       0.417000       1.00800           0
      9296 TIP3     240      TIP3     H2       HT       0.417000       1.00800           0
      9297 TIP3     241      TIP3     OH2      OT      -0.834000       15.9994           0
      9298 TIP3     241      TIP3     H1       HT       0.417000       1.00800           0
      9299 TIP3     241      TIP3     H2       HT       0.417000       1.00800           0
      9300 TIP3     242      TIP3     OH2      OT      -0.834000       15.9994           0
      9301 TIP3     242      TIP3     H1       HT       0.417000       1.00800           0
      9302 TIP3     242      TIP3     H2       HT       0.417000       1.00800           0
      9303 TIP3     243      TIP3     OH2      OT      -0.834000       15.9994           0
      9304 TIP3     243      TIP3     H1       HT       0.417000       1.00800           0
      9305 TIP3     243      TIP3     H2       HT       0.417000       1.00800           0
      9306 TIP3     244      TIP3     OH2      OT      -0.834000       15.9994           0
      9307 TIP3     244      TIP3     H1       HT       0.417000       1.00800           0
      9308 TIP3     244      TIP3     H2       HT       0.417000       1.00800           0
      9309 TIP3     245      TIP3     OH2      OT      -0.834000       15.9994           0
      9310 TIP3     245      TIP3     H1       HT       0.417000       1.00800           0
      9311 TIP3     245      TIP3     H2       HT       0.417000       1.00800           0
      9312 TIP3     246      TIP3     OH2      OT      -0.834000       15.9994           0
      9313 TIP3     246      TIP3     H1       HT       0.417000       1.00800           0
      9314 TIP3     246      TIP3     H2       HT       0.417000       1.00800           0
      9315 TIP3     247      TIP3     OH2      OT      -0.834000       15.9994           0
      9316 TIP3     247      TIP3     H1       HT       0.417000       1.00800           0
      9317 TIP3     247      TIP3     H2       HT       0.417000       1.00800           0
      9318 TIP3     248      TIP3     OH2      OT      -0.834000       15.9994           0
      9319 TIP3     248      TIP3     H1       HT       0.417000       1.00800           0
      9320 TIP3     248      TIP3     H2       HT       0.417000       1.00800           0
      9321 TIP3     249      TIP3     OH2      OT      -0.834000       15.9994           0
      9322 TIP3     249      TIP3     H1       HT       0.417000       1.00800           0
      9323 TIP3     249      TIP3     H2       HT       0.417000       1.00800           0
      9324 TIP3     250      TIP3     OH2      OT      -0.834000       15.9994           0
      9325 TIP3     250      TIP3     H1       HT       0.417000       1.00800           0
      9326 TIP3     250      TIP3     H2       HT       0.417000       1.00800           0
      9327 TIP3     251      TIP3     OH2      OT      -0.834000       15.9994           0
      9328 TIP3     251      TIP3     H1       HT       0.417000       1.00800           0
      9329 TIP3     251      TIP3     H2       HT       0.417000       1.00800           0
      9330 TIP3     252      TIP3     OH2      OT      -0.834000       15.9994           0
      9331 TIP3     252      TIP3     H1       HT       0.417000       1.00800           0
      9332 TIP3     252      TIP3     H2       HT       0.417000       1.00800           0
      9333 TIP3     253      TIP3     OH2      OT      -0.834000       15.9994           0
      9334 TIP3     253      TIP3     H1       HT       0.417000       1.00800           0
      9335 TIP3     253      TIP3     H2       HT       0.417000       1.00800           0
      9336 TIP3     254      TIP3     OH2      OT      -0.834000       15.9994           0
      9337 TIP3     254      TIP3     H1       HT       0.417000       1.00800           0
      9338 TIP3     254      TIP3     H2       HT       0.417000       1.00800           0
      9339 TIP3     255      TIP3     OH2      OT      -0.834000       15.9994           0
      9340 TIP3     255      TIP3     H1       HT       0.417000       1.00800           0
      9341 TIP3     255      TIP3     H2       HT       0.417000       1.00800           0
      9342 TIP3     256      TIP3     OH2      OT      -0.834000       15.9994           0
      9343 TIP3     256      TIP3     H1       HT       0.417000       1.00800           0
      9344 TIP3     256      TIP3     H2       HT       0.417000       1.00800           0
      9345 TIP3     257      TIP3     OH2      OT      -0.834000       15.9994           0
      9346 TIP3     257      TIP3     H1       HT       0.417000       1.00800           0
      9347 TIP3     257      TIP3     H2       HT       0.417000       1.00800           0
      9348 TIP3     258      TIP3     OH2      OT      -0.834000       15.9994           0
      9349 TIP3     258      TIP3     H1       HT       0.417000       1.00800           0
      9350 TIP3     258      TIP3     H2       HT       0.417000       1.00800           0
      9351 TIP3     259      TIP3     OH2      OT      -0.834000       15.9994           0
      9352 TIP3     259      TIP3     H1       HT       0.417000       1.00800           0
      9353 TIP3     259      TIP3     H2       HT       0.417000       1.00800           0
      9354 TIP3     260      TIP3     OH2      OT      -0.834000       15.9994           0
      9355 TIP3     260      TIP3     H1       HT       0.417000       1.00800           0
      9356 TIP3     260      TIP3     H2       HT       0.417000       1.00800           0
      9357 TIP3     261      TIP3     OH2      OT      -0.834000       15.9994           0
      9358 TIP3     261      TIP3     H1       HT       0.417000       1.00800           0
      9359 TIP3     261      TIP3     H2       HT       0.417000       1.00800           0
      9360 TIP3     262      TIP3     OH2      OT      -0.834000       15.9994           0
      9361 TIP3     262      TIP3     H1       HT       0.417000       1.00800           0
      9362 TIP3     262      TIP3     H2       HT       0.417000       1.00800           0
      9363 TIP3     263      TIP3     OH2      OT      -0.834000       15.9994           0
      9364 TIP3     263      TIP3     H1       HT       0.417000       1.00800           0
      9365 TIP3     263      TIP3     H2       HT       0.417000       1.00800           0
      9366 TIP3     264      TIP3     OH2      OT      -0.834000       15.9994           0
      9367 TIP3     264      TIP3     H1       HT       0.417000       1.00800           0
      9368 TIP3     264      TIP3     H2       HT       0.417000       1.00800           0
      9369 TIP3     265      TIP3     OH2      OT      -0.834000       15.9994           0
      9370 TIP3     265      TIP3     H1       HT       0.417000       1.00800           0
      9371 TIP3     265      TIP3     H2       HT       0.417000       1.00800           0
      9372 TIP3     266      TIP3     OH2      OT      -0.834000       15.9994           0
      9373 TIP3     266      TIP3     H1       HT       0.417000       1.00800           0
      9374 TIP3     266      TIP3     H2       HT       0.417000       1.00800           0
      9375 TIP3     267      TIP3     OH2      OT      -0.834000       15.9994           0
      9376 TIP3     267      TIP3     H1       HT       0.417000       1.00800           0
      9377 TIP3     267      TIP3     H2       HT       0.417000       1.00800           0
      9378 TIP3     268      TIP3     OH2      OT      -0.834000       15.9994           0
      9379 TIP3     268      TIP3     H1       HT       0.417000       1.00800           0
      9380 TIP3     268      TIP3     H2       HT       0.417000       1.00800           0
      9381 TIP3     269      TIP3     OH2      OT      -0.834000       15.9994           0
      9382 TIP3     269      TIP3     H1       HT       0.417000       1.00800           0
      9383 TIP3     269      TIP3     H2       HT       0.417000       1.00800           0
      9384 TIP3     270      TIP3     OH2      OT      -0.834000       15.9994           0
      9385 TIP3     270      TIP3     H1       HT       0.417000       1.00800           0
      9386 TIP3     270      TIP3     H2       HT       0.417000       1.00800           0
      9387 TIP3     271      TIP3     OH2      OT      -0.834000       15.9994           0
      9388 TIP3     271      TIP3     H1       HT       0.417000       1.00800           0
      9389 TIP3     271      TIP3     H2       HT       0.417000       1.00800           0
      9390 TIP3     272      TIP3     OH2      OT      -0.834000       15.9994           0
      9391 TIP3     272      TIP3     H1       HT       0.417000       1.00800           0
      9392 TIP3     272      TIP3     H2       HT       0.417000       1.00800           0
      9393 TIP3     273      TIP3     OH2      OT      -0.834000       15.9994           0
      9394 TIP3     273      TIP3     H1       HT       0.417000       1.00800           0
      9395 TIP3     273      TIP3     H2       HT       0.417000       1.00800           0
      9396 TIP3     274      TIP3     OH2      OT      -0.834000       15.9994           0
      9397 TIP3     274      TIP3     H1       HT       0.417000       1.00800           0
      9398 TIP3     274      TIP3     H2       HT       0.417000       1.00800           0
      9399 TIP3     275      TIP3     OH2      OT      -0.834000       15.9994           0
      9400 TIP3     275      TIP3     H1       HT       0.417000       1.00800           0
      9401 TIP3     275      TIP3     H2       HT       0.417000       1.00800           0
      9402 TIP3     276      TIP3     OH2      OT      -0.834000       15.9994           0
      9403 TIP3     276      TIP3     H1       HT       0.417000       1.00800           0
      9404 TIP3     276      TIP3     H2       HT       0.417000       1.00800           0
      9405 TIP3     277      TIP3     OH2      OT      -0.834000       15.9994           0
      9406 TIP3     277      TIP3     H1       HT       0.417000       1.00800           0
      9407 TIP3     277      TIP3     H2       HT       0.417000       1.00800           0
      9408 TIP3     278      TIP3     OH2      OT      -0.834000       15.9994           0
      9409 TIP3     278      TIP3     H1       HT       0.417000       1.00800           0
      9410 TIP3     278      TIP3     H2       HT       0.417000       1.00800           0
      9411 TIP3     279      TIP3     OH2      OT      -0.834000       15.9994           0
      9412 TIP3     279      TIP3     H1       HT       0.417000       1.00800           0
      9413 TIP3     279      TIP3     H2       HT       0.417000       1.00800           0
      9414 TIP3     280      TIP3     OH2      OT      -0.834000       15.9994           0
      9415 TIP3     280      TIP3     H1       HT       0.417000       1.00800           0
      9416 TIP3     280      TIP3     H2       HT       0.417000       1.00800           0
      9417 TIP3     281      TIP3     OH2      OT      -0.834000       15.9994           0
      9418 TIP3     281      TIP3     H1       HT       0.417000       1.00800           0
      9419 TIP3     281      TIP3     H2       HT       0.417000       1.00800           0
      9420 TIP3     282      TIP3     OH2      OT      -0.834000       15.9994           0
      9421 TIP3     282      TIP3     H1       HT       0.417000       1.00800           0
      9422 TIP3     282      TIP3     H2       HT       0.417000       1.00800           0
      9423 TIP3     283      TIP3     OH2      OT      -0.834000       15.9994           0
      9424 TIP3     283      TIP3     H1       HT       0.417000       1.00800           0
      9425 TIP3     283      TIP3     H2       HT       0.417000       1.00800           0
      9426 TIP3     284      TIP3     OH2      OT      -0.834000       15.9994           0
      9427 TIP3     284      TIP3     H1       HT       0.417000       1.00800           0
      9428 TIP3     284      TIP3     H2       HT       0.417000       1.00800           0
      9429 TIP3     285      TIP3     OH2      OT      -0.834000       15.9994           0
      9430 TIP3     285      TIP3     H1       HT       0.417000       1.00800           0
      9431 TIP3     285      TIP3     H2       HT       0.417000       1.00800           0
      9432 TIP3     286      TIP3     OH2      OT      -0.834000       15.9994           0
      9433 TIP3     286      TIP3     H1       HT       0.417000       1.00800           0
      9434 TIP3     286      TIP3     H2       HT       0.417000       1.00800           0
      9435 TIP3     287      TIP3     OH2      OT      -0.834000       15.9994           0
      9436 TIP3     287      TIP3     H1       HT       0.417000       1.00800           0
      9437 TIP3     287      TIP3     H2       HT       0.417000       1.00800           0
      9438 TIP3     288      TIP3     OH2      OT      -0.834000       15.9994           0
      9439 TIP3     288      TIP3     H1       HT       0.417000       1.00800           0
      9440 TIP3     288      TIP3     H2       HT       0.417000       1.00800           0
      9441 TIP3     289      TIP3     OH2      OT      -0.834000       15.9994           0
      9442 TIP3     289      TIP3     H1       HT       0.417000       1.00800           0
      9443 TIP3     289      TIP3     H2       HT       0.417000       1.00800           0
      9444 TIP3     290      TIP3     OH2      OT      -0.834000       15.9994           0
      9445 TIP3     290      TIP3     H1       HT       0.417000       1.00800           0
      9446 TIP3     290      TIP3     H2       HT       0.417000       1.00800           0
      9447 TIP3     291      TIP3     OH2      OT      -0.834000       15.9994           0
      9448 TIP3     291      TIP3     H1       HT       0.417000       1.00800           0
      9449 TIP3     291      TIP3     H2       HT       0.417000       1.00800           0
      9450 TIP3     292      TIP3     OH2      OT      -0.834000       15.9994           0
      9451 TIP3     292      TIP3     H1       HT       0.417000       1.00800           0
      9452 TIP3     292      TIP3     H2       HT       0.417000       1.00800           0
      9453 TIP3     293      TIP3     OH2      OT      -0.834000       15.9994           0
      9454 TIP3     293      TIP3     H1       HT       0.417000       1.00800           0
      9455 TIP3     293      TIP3     H2       HT       0.417000       1.00800           0
      9456 TIP3     294      TIP3     OH2      OT      -0.834000       15.9994           0
      9457 TIP3     294      TIP3     H1       HT       0.417000       1.00800           0
      9458 TIP3     294      TIP3     H2       HT       0.417000       1.00800           0
      9459 TIP3     295      TIP3     OH2      OT      -0.834000       15.9994           0
      9460 TIP3     295      TIP3     H1       HT       0.417000       1.00800           0
      9461 TIP3     295      TIP3     H2       HT       0.417000       1.00800           0
      9462 TIP3     296      TIP3     OH2      OT      -0.834000       15.9994           0
      9463 TIP3     296      TIP3     H1       HT       0.417000       1.00800           0
      9464 TIP3     296      TIP3     H2       HT       0.417000       1.00800           0
      9465 TIP3     297      TIP3     OH2      OT      -0.834000       15.9994           0
      9466 TIP3     297      TIP3     H1       HT       0.417000       1.00800           0
      9467 TIP3     297      TIP3     H2       HT       0.417000       1.00800           0
      9468 TIP3     298      TIP3     OH2      OT      -0.834000       15.9994           0
      9469 TIP3     298      TIP3     H1       HT       0.417000       1.00800           0
      9470 TIP3     298      TIP3     H2       HT       0.417000       1.00800           0
      9471 TIP3     299      TIP3     OH2      OT      -0.834000       15.9994           0
      9472 TIP3     299      TIP3     H1       HT       0.417000       1.00800           0
      9473 TIP3     299      TIP3     H2       HT       0.417000       1.00800           0
      9474 TIP3     300      TIP3     OH2      OT      -0.834000       15.9994           0
      9475 TIP3     300      TIP3     H1       HT       0.417000       1.00800           0
      9476 TIP3     300      TIP3     H2       HT       0.417000       1.00800           0
      9477 TIP3     301      TIP3     OH2      OT      -0.834000       15.9994           0
      9478 TIP3     301      TIP3     H1       HT       0.417000       1.00800           0
      9479 TIP3     301      TIP3     H2       HT       0.417000       1.00800           0
      9480 TIP3     302      TIP3     OH2      OT      -0.834000       15.9994           0
      9481 TIP3     302      TIP3     H1       HT       0.417000       1.00800           0
      9482 TIP3     302      TIP3     H2       HT       0.417000       1.00800           0
      9483 TIP3     303      TIP3     OH2      OT      -0.834000       15.9994           0
      9484 TIP3     303      TIP3     H1       HT       0.417000       1.00800           0
      9485 TIP3     303      TIP3     H2       HT       0.417000       1.00800           0
      9486 TIP3     304      TIP3     OH2      OT      -0.834000       15.9994           0
      9487 TIP3     304      TIP3     H1       HT       0.417000       1.00800           0
      9488 TIP3     304      TIP3     H2       HT       0.417000       1.00800           0
      9489 TIP3     305      TIP3     OH2      OT      -0.834000       15.9994           0
      9490 TIP3     305      TIP3     H1       HT       0.417000       1.00800           0
      9491 TIP3     305      TIP3     H2       HT       0.417000       1.00800           0
      9492 TIP3     306      TIP3     OH2      OT      -0.834000       15.9994           0
      9493 TIP3     306      TIP3     H1       HT       0.417000       1.00800           0
      9494 TIP3     306      TIP3     H2       HT       0.417000       1.00800           0
      9495 TIP3     307      TIP3     OH2      OT      -0.834000       15.9994           0
      9496 TIP3     307      TIP3     H1       HT       0.417000       1.00800           0
      9497 TIP3     307      TIP3     H2       HT       0.417000       1.00800           0
      9498 TIP3     308      TIP3     OH2      OT      -0.834000       15.9994           0
      9499 TIP3     308      TIP3     H1       HT       0.417000       1.00800           0
      9500 TIP3     308      TIP3     H2       HT       0.417000       1.00800           0
      9501 TIP3     309      TIP3     OH2      OT      -0.834000       15.9994           0
      9502 TIP3     309      TIP3     H1       HT       0.417000       1.00800           0
      9503 TIP3     309      TIP3     H2       HT       0.417000       1.00800           0
      9504 TIP3     310      TIP3     OH2      OT      -0.834000       15.9994           0
      9505 TIP3     310      TIP3     H1       HT       0.417000       1.00800           0
      9506 TIP3     310      TIP3     H2       HT       0.417000       1.00800           0
      9507 TIP3     311      TIP3     OH2      OT      -0.834000       15.9994           0
      9508 TIP3     311      TIP3     H1       HT       0.417000       1.00800           0
      9509 TIP3     311      TIP3     H2       HT       0.417000       1.00800           0
      9510 TIP3     312      TIP3     OH2      OT      -0.834000       15.9994           0
      9511 TIP3     312      TIP3     H1       HT       0.417000       1.00800           0
      9512 TIP3     312      TIP3     H2       HT       0.417000       1.00800           0
      9513 TIP3     313      TIP3     OH2      OT      -0.834000       15.9994           0
      9514 TIP3     313      TIP3     H1       HT       0.417000       1.00800           0
      9515 TIP3     313      TIP3     H2       HT       0.417000       1.00800           0
      9516 TIP3     314      TIP3     OH2      OT      -0.834000       15.9994           0
      9517 TIP3     314      TIP3     H1       HT       0.417000       1.00800           0
      9518 TIP3     314      TIP3     H2       HT       0.417000       1.00800           0
      9519 TIP3     315      TIP3     OH2      OT      -0.834000       15.9994           0
      9520 TIP3     315      TIP3     H1       HT       0.417000       1.00800           0
      9521 TIP3     315      TIP3     H2       HT       0.417000       1.00800           0
      9522 TIP3     316      TIP3     OH2      OT      -0.834000       15.9994           0
      9523 TIP3     316      TIP3     H1       HT       0.417000       1.00800           0
      9524 TIP3     316      TIP3     H2       HT       0.417000       1.00800           0
      9525 TIP3     317      TIP3     OH2      OT      -0.834000       15.9994           0
      9526 TIP3     317      TIP3     H1       HT       0.417000       1.00800           0
      9527 TIP3     317      TIP3     H2       HT       0.417000       1.00800           0
      9528 TIP3     318      TIP3     OH2      OT      -0.834000       15.9994           0
      9529 TIP3     318      TIP3     H1       HT       0.417000       1.00800           0
      9530 TIP3     318      TIP3     H2       HT       0.417000       1.00800           0
      9531 TIP3     319      TIP3     OH2      OT      -0.834000       15.9994           0
      9532 TIP3     319      TIP3     H1       HT       0.417000       1.00800           0
      9533 TIP3     319      TIP3     H2       HT       0.417000       1.00800           0
      9534 TIP3     320      TIP3     OH2      OT      -0.834000       15.9994           0
      9535 TIP3     320      TIP3     H1       HT       0.417000       1.00800           0
      9536 TIP3     320      TIP3     H2       HT       0.417000       1.00800           0
      9537 TIP3     321      TIP3     OH2      OT      -0.834000       15.9994           0
      9538 TIP3     321      TIP3     H1       HT       0.417000       1.00800           0
      9539 TIP3     321      TIP3     H2       HT       0.417000       1.00800           0
      9540 TIP3     322      TIP3     OH2      OT      -0.834000       15.9994           0
      9541 TIP3     322      TIP3     H1       HT       0.417000       1.00800           0
      9542 TIP3     322      TIP3     H2       HT       0.417000       1.00800           0
      9543 TIP3     323      TIP3     OH2      OT      -0.834000       15.9994           0
      9544 TIP3     323      TIP3     H1       HT       0.417000       1.00800           0
      9545 TIP3     323      TIP3     H2       HT       0.417000       1.00800           0
      9546 TIP3     324      TIP3     OH2      OT      -0.834000       15.9994           0
      9547 TIP3     324      TIP3     H1       HT       0.417000       1.00800           0
      9548 TIP3     324      TIP3     H2       HT       0.417000       1.00800           0
      9549 TIP3     325      TIP3     OH2      OT      -0.834000       15.9994           0
      9550 TIP3     325      TIP3     H1       HT       0.417000       1.00800           0
      9551 TIP3     325      TIP3     H2       HT       0.417000       1.00800           0
      9552 TIP3     326      TIP3     OH2      OT      -0.834000       15.9994           0
      9553 TIP3     326      TIP3     H1       HT       0.417000       1.00800           0
      9554 TIP3     326      TIP3     H2       HT       0.417000       1.00800           0
      9555 TIP3     327      TIP3     OH2      OT      -0.834000       15.9994           0
      9556 TIP3     327      TIP3     H1       HT       0.417000       1.00800           0
      9557 TIP3     327      TIP3     H2       HT       0.417000       1.00800           0
      9558 TIP3     328      TIP3     OH2      OT      -0.834000       15.9994           0
      9559 TIP3     328      TIP3     H1       HT       0.417000       1.00800           0
      9560 TIP3     328      TIP3     H2       HT       0.417000       1.00800           0
      9561 TIP3     329      TIP3     OH2      OT      -0.834000       15.9994           0
      9562 TIP3     329      TIP3     H1       HT       0.417000       1.00800           0
      9563 TIP3     329      TIP3     H2       HT       0.417000       1.00800           0
      9564 TIP3     330      TIP3     OH2      OT      -0.834000       15.9994           0
      9565 TIP3     330      TIP3     H1       HT       0.417000       1.00800           0
      9566 TIP3     330      TIP3     H2       HT       0.417000       1.00800           0
      9567 TIP3     331      TIP3     OH2      OT      -0.834000       15.9994           0
      9568 TIP3     331      TIP3     H1       HT       0.417000       1.00800           0
      9569 TIP3     331      TIP3     H2       HT       0.417000       1.00800           0
      9570 TIP3     332      TIP3     OH2      OT      -0.834000       15.9994           0
      9571 TIP3     332      TIP3     H1       HT       0.417000       1.00800           0
      9572 TIP3     332      TIP3     H2       HT       0.417000       1.00800           0
      9573 TIP3     333      TIP3     OH2      OT      -0.834000       15.9994           0
      9574 TIP3     333      TIP3     H1       HT       0.417000       1.00800           0
      9575 TIP3     333      TIP3     H2       HT       0.417000       1.00800           0
      9576 TIP3     334      TIP3     OH2      OT      -0.834000       15.9994           0
      9577 TIP3     334      TIP3     H1       HT       0.417000       1.00800           0
      9578 TIP3     334      TIP3     H2       HT       0.417000       1.00800           0
      9579 TIP3     335      TIP3     OH2      OT      -0.834000       15.9994           0
      9580 TIP3     335      TIP3     H1       HT       0.417000       1.00800           0
      9581 TIP3     335      TIP3     H2       HT       0.417000       1.00800           0
      9582 TIP3     336      TIP3     OH2      OT      -0.834000       15.9994           0
      9583 TIP3     336      TIP3     H1       HT       0.417000       1.00800           0
      9584 TIP3     336      TIP3     H2       HT       0.417000       1.00800           0
      9585 TIP3     337      TIP3     OH2      OT      -0.834000       15.9994           0
      9586 TIP3     337      TIP3     H1       HT       0.417000       1.00800           0
      9587 TIP3     337      TIP3     H2       HT       0.417000       1.00800           0
      9588 TIP3     338      TIP3     OH2      OT      -0.834000       15.9994           0
      9589 TIP3     338      TIP3     H1       HT       0.417000       1.00800           0
      9590 TIP3     338      TIP3     H2       HT       0.417000       1.00800           0
      9591 TIP3     339      TIP3     OH2      OT      -0.834000       15.9994           0
      9592 TIP3     339      TIP3     H1       HT       0.417000       1.00800           0
      9593 TIP3     339      TIP3     H2       HT       0.417000       1.00800           0
      9594 TIP3     340      TIP3     OH2      OT      -0.834000       15.9994           0
      9595 TIP3     340      TIP3     H1       HT       0.417000       1.00800           0
      9596 TIP3     340      TIP3     H2       HT       0.417000       1.00800           0
      9597 TIP3     341      TIP3     OH2      OT      -0.834000       15.9994           0
      9598 TIP3     341      TIP3     H1       HT       0.417000       1.00800           0
      9599 TIP3     341      TIP3     H2       HT       0.417000       1.00800           0
      9600 TIP3     342      TIP3     OH2      OT      -0.834000       15.9994           0
      9601 TIP3     342      TIP3     H1       HT       0.417000       1.00800           0
      9602 TIP3     342      TIP3     H2       HT       0.417000       1.00800           0
      9603 TIP3     343      TIP3     OH2      OT      -0.834000       15.9994           0
      9604 TIP3     343      TIP3     H1       HT       0.417000       1.00800           0
      9605 TIP3     343      TIP3     H2       HT       0.417000       1.00800           0
      9606 TIP3     344      TIP3     OH2      OT      -0.834000       15.9994           0
      9607 TIP3     344      TIP3     H1       HT       0.417000       1.00800           0
      9608 TIP3     344      TIP3     H2       HT       0.417000       1.00800           0
      9609 TIP3     345      TIP3     OH2      OT      -0.834000       15.9994           0
      9610 TIP3     345      TIP3     H1       HT       0.417000       1.00800           0
      9611 TIP3     345      TIP3     H2       HT       0.417000       1.00800           0
      9612 TIP3     346      TIP3     OH2      OT      -0.834000       15.9994           0
      9613 TIP3     346      TIP3     H1       HT       0.417000       1.00800           0
      9614 TIP3     346      TIP3     H2       HT       0.417000       1.00800           0
      9615 TIP3     347      TIP3     OH2      OT      -0.834000       15.9994           0
      9616 TIP3     347      TIP3     H1       HT       0.417000       1.00800           0
      9617 TIP3     347      TIP3     H2       HT       0.417000       1.00800           0
      9618 TIP3     348      TIP3     OH2      OT      -0.834000       15.9994           0
      9619 TIP3     348      TIP3     H1       HT       0.417000       1.00800           0
      9620 TIP3     348      TIP3     H2       HT       0.417000       1.00800           0
      9621 TIP3     349      TIP3     OH2      OT      -0.834000       15.9994           0
      9622 TIP3     349      TIP3     H1       HT       0.417000       1.00800           0
      9623 TIP3     349      TIP3     H2       HT       0.417000       1.00800           0
      9624 TIP3     350      TIP3     OH2      OT      -0.834000       15.9994           0
      9625 TIP3     350      TIP3     H1       HT       0.417000       1.00800           0
      9626 TIP3     350      TIP3     H2       HT       0.417000       1.00800           0
      9627 TIP3     351      TIP3     OH2      OT      -0.834000       15.9994           0
      9628 TIP3     351      TIP3     H1       HT       0.417000       1.00800           0
      9629 TIP3     351      TIP3     H2       HT       0.417000       1.00800           0
      9630 TIP3     352      TIP3     OH2      OT      -0.834000       15.9994           0
      9631 TIP3     352      TIP3     H1       HT       0.417000       1.00800           0
      9632 TIP3     352      TIP3     H2       HT       0.417000       1.00800           0
      9633 TIP3     353      TIP3     OH2      OT      -0.834000       15.9994           0
      9634 TIP3     353      TIP3     H1       HT       0.417000       1.00800           0
      9635 TIP3     353      TIP3     H2       HT       0.417000       1.00800           0
      9636 TIP3     354      TIP3     OH2      OT      -0.834000       15.9994           0
      9637 TIP3     354      TIP3     H1       HT       0.417000       1.00800           0
      9638 TIP3     354      TIP3     H2       HT       0.417000       1.00800           0
      9639 TIP3     355      TIP3     OH2      OT      -0.834000       15.9994           0
      9640 TIP3     355      TIP3     H1       HT       0.417000       1.00800           0
      9641 TIP3     355      TIP3     H2       HT       0.417000       1.00800           0
      9642 TIP3     356      TIP3     OH2      OT      -0.834000       15.9994           0
      9643 TIP3     356      TIP3     H1       HT       0.417000       1.00800           0
      9644 TIP3     356      TIP3     H2       HT       0.417000       1.00800           0
      9645 TIP3     357      TIP3     OH2      OT      -0.834000       15.9994           0
      9646 TIP3     357      TIP3     H1       HT       0.417000       1.00800           0
      9647 TIP3     357      TIP3     H2       HT       0.417000       1.00800           0
      9648 TIP3     358      TIP3     OH2      OT      -0.834000       15.9994           0
      9649 TIP3     358      TIP3     H1       HT       0.417000       1.00800           0
      9650 TIP3     358      TIP3     H2       HT       0.417000       1.00800           0
      9651 TIP3     359      TIP3     OH2      OT      -0.834000       15.9994           0
      9652 TIP3     359      TIP3     H1       HT       0.417000       1.00800           0
      9653 TIP3     359      TIP3     H2       HT       0.417000       1.00800           0
      9654 TIP3     360      TIP3     OH2      OT      -0.834000       15.9994           0
      9655 TIP3     360      TIP3     H1       HT       0.417000       1.00800           0
      9656 TIP3     360      TIP3     H2       HT       0.417000       1.00800           0
      9657 TIP3     361      TIP3     OH2      OT      -0.834000       15.9994           0
      9658 TIP3     361      TIP3     H1       HT       0.417000       1.00800           0
      9659 TIP3     361      TIP3     H2       HT       0.417000       1.00800           0
      9660 TIP3     362      TIP3     OH2      OT      -0.834000       15.9994           0
      9661 TIP3     362      TIP3     H1       HT       0.417000       1.00800           0
      9662 TIP3     362      TIP3     H2       HT       0.417000       1.00800           0
      9663 TIP3     363      TIP3     OH2      OT      -0.834000       15.9994           0
      9664 TIP3     363      TIP3     H1       HT       0.417000       1.00800           0
      9665 TIP3     363      TIP3     H2       HT       0.417000       1.00800           0
      9666 TIP3     364      TIP3     OH2      OT      -0.834000       15.9994           0
      9667 TIP3     364      TIP3     H1       HT       0.417000       1.00800           0
      9668 TIP3     364      TIP3     H2       HT       0.417000       1.00800           0
      9669 TIP3     365      TIP3     OH2      OT      -0.834000       15.9994           0
      9670 TIP3     365      TIP3     H1       HT       0.417000       1.00800           0
      9671 TIP3     365      TIP3     H2       HT       0.417000       1.00800           0
      9672 TIP3     366      TIP3     OH2      OT      -0.834000       15.9994           0
      9673 TIP3     366      TIP3     H1       HT       0.417000       1.00800           0
      9674 TIP3     366      TIP3     H2       HT       0.417000       1.00800           0
      9675 TIP3     367      TIP3     OH2      OT      -0.834000       15.9994           0
      9676 TIP3     367      TIP3     H1       HT       0.417000       1.00800           0
      9677 TIP3     367      TIP3     H2       HT       0.417000       1.00800           0
      9678 TIP3     368      TIP3     OH2      OT      -0.834000       15.9994           0
      9679 TIP3     368      TIP3     H1       HT       0.417000       1.00800           0
      9680 TIP3     368      TIP3     H2       HT       0.417000       1.00800           0
      9681 TIP3     369      TIP3     OH2      OT      -0.834000       15.9994           0
      9682 TIP3     369      TIP3     H1       HT       0.417000       1.00800           0
      9683 TIP3     369      TIP3     H2       HT       0.417000       1.00800           0
      9684 TIP3     370      TIP3     OH2      OT      -0.834000       15.9994           0
      9685 TIP3     370      TIP3     H1       HT       0.417000       1.00800           0
      9686 TIP3     370      TIP3     H2       HT       0.417000       1.00800           0
      9687 TIP3     371      TIP3     OH2      OT      -0.834000       15.9994           0
      9688 TIP3     371      TIP3     H1       HT       0.417000       1.00800           0
      9689 TIP3     371      TIP3     H2       HT       0.417000       1.00800           0
      9690 TIP3     372      TIP3     OH2      OT      -0.834000       15.9994           0
      9691 TIP3     372      TIP3     H1       HT       0.417000       1.00800           0
      9692 TIP3     372      TIP3     H2       HT       0.417000       1.00800           0
      9693 TIP3     373      TIP3     OH2      OT      -0.834000       15.9994           0
      9694 TIP3     373      TIP3     H1       HT       0.417000       1.00800           0
      9695 TIP3     373      TIP3     H2       HT       0.417000       1.00800           0
      9696 TIP3     374      TIP3     OH2      OT      -0.834000       15.9994           0
      9697 TIP3     374      TIP3     H1       HT       0.417000       1.00800           0
      9698 TIP3     374      TIP3     H2       HT       0.417000       1.00800           0
      9699 TIP3     375      TIP3     OH2      OT      -0.834000       15.9994           0
      9700 TIP3     375      TIP3     H1       HT       0.417000       1.00800           0
      9701 TIP3     375      TIP3     H2       HT       0.417000       1.00800           0
      9702 TIP3     376      TIP3     OH2      OT      -0.834000       15.9994           0
      9703 TIP3     376      TIP3     H1       HT       0.417000       1.00800           0
      9704 TIP3     376      TIP3     H2       HT       0.417000       1.00800           0
      9705 TIP3     377      TIP3     OH2      OT      -0.834000       15.9994           0
      9706 TIP3     377      TIP3     H1       HT       0.417000       1.00800           0
      9707 TIP3     377      TIP3     H2       HT       0.417000       1.00800           0
      9708 TIP3     378      TIP3     OH2      OT      -0.834000       15.9994           0
      9709 TIP3     378      TIP3     H1       HT       0.417000       1.00800           0
      9710 TIP3     378      TIP3     H2       HT       0.417000       1.00800           0
      9711 TIP3     379      TIP3     OH2      OT      -0.834000       15.9994           0
      9712 TIP3     379      TIP3     H1       HT       0.417000       1.00800           0
      9713 TIP3     379      TIP3     H2       HT       0.417000       1.00800           0
      9714 TIP3     380      TIP3     OH2      OT      -0.834000       15.9994           0
      9715 TIP3     380      TIP3     H1       HT       0.417000       1.00800           0
      9716 TIP3     380      TIP3     H2       HT       0.417000       1.00800           0
      9717 TIP3     381      TIP3     OH2      OT      -0.834000       15.9994           0
      9718 TIP3     381      TIP3     H1       HT       0.417000       1.00800           0
      9719 TIP3     381      TIP3     H2       HT       0.417000       1.00800           0
      9720 TIP3     382      TIP3     OH2      OT      -0.834000       15.9994           0
      9721 TIP3     382      TIP3     H1       HT       0.417000       1.00800           0
      9722 TIP3     382      TIP3     H2       HT       0.417000       1.00800           0
      9723 TIP3     383      TIP3     OH2      OT      -0.834000       15.9994           0
      9724 TIP3     383      TIP3     H1       HT       0.417000       1.00800           0
      9725 TIP3     383      TIP3     H2       HT       0.417000       1.00800           0
      9726 TIP3     384      TIP3     OH2      OT      -0.834000       15.9994           0
      9727 TIP3     384      TIP3     H1       HT       0.417000       1.00800           0
      9728 TIP3     384      TIP3     H2       HT       0.417000       1.00800           0
      9729 TIP3     385      TIP3     OH2      OT      -0.834000       15.9994           0
      9730 TIP3     385      TIP3     H1       HT       0.417000       1.00800           0
      9731 TIP3     385      TIP3     H2       HT       0.417000       1.00800           0
      9732 TIP3     386      TIP3     OH2      OT      -0.834000       15.9994           0
      9733 TIP3     386      TIP3     H1       HT       0.417000       1.00800           0
      9734 TIP3     386      TIP3     H2       HT       0.417000       1.00800           0
      9735 TIP3     387      TIP3     OH2      OT      -0.834000       15.9994           0
      9736 TIP3     387      TIP3     H1       HT       0.417000       1.00800           0
      9737 TIP3     387      TIP3     H2       HT       0.417000       1.00800           0
      9738 TIP3     388      TIP3     OH2      OT      -0.834000       15.9994           0
      9739 TIP3     388      TIP3     H1       HT       0.417000       1.00800           0
      9740 TIP3     388      TIP3     H2       HT       0.417000       1.00800           0
      9741 TIP3     389      TIP3     OH2      OT      -0.834000       15.9994           0
      9742 TIP3     389      TIP3     H1       HT       0.417000       1.00800           0
      9743 TIP3     389      TIP3     H2       HT       0.417000       1.00800           0
      9744 TIP3     390      TIP3     OH2      OT      -0.834000       15.9994           0
      9745 TIP3     390      TIP3     H1       HT       0.417000       1.00800           0
      9746 TIP3     390      TIP3     H2       HT       0.417000       1.00800           0
      9747 TIP3     391      TIP3     OH2      OT      -0.834000       15.9994           0
      9748 TIP3     391      TIP3     H1       HT       0.417000       1.00800           0
      9749 TIP3     391      TIP3     H2       HT       0.417000       1.00800           0
      9750 TIP3     392      TIP3     OH2      OT      -0.834000       15.9994           0
      9751 TIP3     392      TIP3     H1       HT       0.417000       1.00800           0
      9752 TIP3     392      TIP3     H2       HT       0.417000       1.00800           0
      9753 TIP3     393      TIP3     OH2      OT      -0.834000       15.9994           0
      9754 TIP3     393      TIP3     H1       HT       0.417000       1.00800           0
      9755 TIP3     393      TIP3     H2       HT       0.417000       1.00800           0
      9756 TIP3     394      TIP3     OH2      OT      -0.834000       15.9994           0
      9757 TIP3     394      TIP3     H1       HT       0.417000       1.00800           0
      9758 TIP3     394      TIP3     H2       HT       0.417000       1.00800           0
      9759 TIP3     395      TIP3     OH2      OT      -0.834000       15.9994           0
      9760 TIP3     395      TIP3     H1       HT       0.417000       1.00800           0
      9761 TIP3     395      TIP3     H2       HT       0.417000       1.00800           0
      9762 TIP3     396      TIP3     OH2      OT      -0.834000       15.9994           0
      9763 TIP3     396      TIP3     H1       HT       0.417000       1.00800           0
      9764 TIP3     396      TIP3     H2       HT       0.417000       1.00800           0
      9765 TIP3     397      TIP3     OH2      OT      -0.834000       15.9994           0
      9766 TIP3     397      TIP3     H1       HT       0.417000       1.00800           0
      9767 TIP3     397      TIP3     H2       HT       0.417000       1.00800           0
      9768 TIP3     398      TIP3     OH2      OT      -0.834000       15.9994           0
      9769 TIP3     398      TIP3     H1       HT       0.417000       1.00800           0
      9770 TIP3     398      TIP3     H2       HT       0.417000       1.00800           0
      9771 TIP3     399      TIP3     OH2      OT      -0.834000       15.9994           0
      9772 TIP3     399      TIP3     H1       HT       0.417000       1.00800           0
      9773 TIP3     399      TIP3     H2       HT       0.417000       1.00800           0
      9774 TIP3     400      TIP3     OH2      OT      -0.834000       15.9994           0
      9775 TIP3     400      TIP3     H1       HT       0.417000       1.00800           0
      9776 TIP3     400      TIP3     H2       HT       0.417000       1.00800           0
      9777 TIP3     401      TIP3     OH2      OT      -0.834000       15.9994           0
      9778 TIP3     401      TIP3     H1       HT       0.417000       1.00800           0
      9779 TIP3     401      TIP3     H2       HT       0.417000       1.00800           0
      9780 TIP3     402      TIP3     OH2      OT      -0.834000       15.9994           0
      9781 TIP3     402      TIP3     H1       HT       0.417000       1.00800           0
      9782 TIP3     402      TIP3     H2       HT       0.417000       1.00800           0
      9783 TIP3     403      TIP3     OH2      OT      -0.834000       15.9994           0
      9784 TIP3     403      TIP3     H1       HT       0.417000       1.00800           0
      9785 TIP3     403      TIP3     H2       HT       0.417000       1.00800           0
      9786 TIP3     404      TIP3     OH2      OT      -0.834000       15.9994           0
      9787 TIP3     404      TIP3     H1       HT       0.417000       1.00800           0
      9788 TIP3     404      TIP3     H2       HT       0.417000       1.00800           0
      9789 TIP3     405      TIP3     OH2      OT      -0.834000       15.9994           0
      9790 TIP3     405      TIP3     H1       HT       0.417000       1.00800           0
      9791 TIP3     405      TIP3     H2       HT       0.417000       1.00800           0
      9792 TIP3     406      TIP3     OH2      OT      -0.834000       15.9994           0
      9793 TIP3     406      TIP3     H1       HT       0.417000       1.00800           0
      9794 TIP3     406      TIP3     H2       HT       0.417000       1.00800           0
      9795 TIP3     407      TIP3     OH2      OT      -0.834000       15.9994           0
      9796 TIP3     407      TIP3     H1       HT       0.417000       1.00800           0
      9797 TIP3     407      TIP3     H2       HT       0.417000       1.00800           0
      9798 TIP3     408      TIP3     OH2      OT      -0.834000       15.9994           0
      9799 TIP3     408      TIP3     H1       HT       0.417000       1.00800           0
      9800 TIP3     408      TIP3     H2       HT       0.417000       1.00800           0
      9801 TIP3     409      TIP3     OH2      OT      -0.834000       15.9994           0
      9802 TIP3     409      TIP3     H1       HT       0.417000       1.00800           0
      9803 TIP3     409      TIP3     H2       HT       0.417000       1.00800           0
      9804 TIP3     410      TIP3     OH2      OT      -0.834000       15.9994           0
      9805 TIP3     410      TIP3     H1       HT       0.417000       1.00800           0
      9806 TIP3     410      TIP3     H2       HT       0.417000       1.00800           0
      9807 TIP3     411      TIP3     OH2      OT      -0.834000       15.9994           0
      9808 TIP3     411      TIP3     H1       HT       0.417000       1.00800           0
      9809 TIP3     411      TIP3     H2       HT       0.417000       1.00800           0
      9810 TIP3     412      TIP3     OH2      OT      -0.834000       15.9994           0
      9811 TIP3     412      TIP3     H1       HT       0.417000       1.00800           0
      9812 TIP3     412      TIP3     H2       HT       0.417000       1.00800           0
      9813 TIP3     413      TIP3     OH2      OT      -0.834000       15.9994           0
      9814 TIP3     413      TIP3     H1       HT       0.417000       1.00800           0
      9815 TIP3     413      TIP3     H2       HT       0.417000       1.00800           0
      9816 TIP3     414      TIP3     OH2      OT      -0.834000       15.9994           0
      9817 TIP3     414      TIP3     H1       HT       0.417000       1.00800           0
      9818 TIP3     414      TIP3     H2       HT       0.417000       1.00800           0
      9819 TIP3     415      TIP3     OH2      OT      -0.834000       15.9994           0
      9820 TIP3     415      TIP3     H1       HT       0.417000       1.00800           0
      9821 TIP3     415      TIP3     H2       HT       0.417000       1.00800           0
      9822 TIP3     416      TIP3     OH2      OT      -0.834000       15.9994           0
      9823 TIP3     416      TIP3     H1       HT       0.417000       1.00800           0
      9824 TIP3     416      TIP3     H2       HT       0.417000       1.00800           0
      9825 TIP3     417      TIP3     OH2      OT      -0.834000       15.9994           0
      9826 TIP3     417      TIP3     H1       HT       0.417000       1.00800           0
      9827 TIP3     417      TIP3     H2       HT       0.417000       1.00800           0
      9828 TIP3     418      TIP3     OH2      OT      -0.834000       15.9994           0
      9829 TIP3     418      TIP3     H1       HT       0.417000       1.00800           0
      9830 TIP3     418      TIP3     H2       HT       0.417000       1.00800           0
      9831 TIP3     419      TIP3     OH2      OT      -0.834000       15.9994           0
      9832 TIP3     419      TIP3     H1       HT       0.417000       1.00800           0
      9833 TIP3     419      TIP3     H2       HT       0.417000       1.00800           0
      9834 TIP3     420      TIP3     OH2      OT      -0.834000       15.9994           0
      9835 TIP3     420      TIP3     H1       HT       0.417000       1.00800           0
      9836 TIP3     420      TIP3     H2       HT       0.417000       1.00800           0
      9837 TIP3     421      TIP3     OH2      OT      -0.834000       15.9994           0
      9838 TIP3     421      TIP3     H1       HT       0.417000       1.00800           0
      9839 TIP3     421      TIP3     H2       HT       0.417000       1.00800           0
      9840 TIP3     422      TIP3     OH2      OT      -0.834000       15.9994           0
      9841 TIP3     422      TIP3     H1       HT       0.417000       1.00800           0
      9842 TIP3     422      TIP3     H2       HT       0.417000       1.00800           0
      9843 TIP3     423      TIP3     OH2      OT      -0.834000       15.9994           0
      9844 TIP3     423      TIP3     H1       HT       0.417000       1.00800           0
      9845 TIP3     423      TIP3     H2       HT       0.417000       1.00800           0
      9846 TIP3     424      TIP3     OH2      OT      -0.834000       15.9994           0
      9847 TIP3     424      TIP3     H1       HT       0.417000       1.00800           0
      9848 TIP3     424      TIP3     H2       HT       0.417000       1.00800           0
      9849 TIP3     425      TIP3     OH2      OT      -0.834000       15.9994           0
      9850 TIP3     425      TIP3     H1       HT       0.417000       1.00800           0
      9851 TIP3     425      TIP3     H2       HT       0.417000       1.00800           0
      9852 TIP3     426      TIP3     OH2      OT      -0.834000       15.9994           0
      9853 TIP3     426      TIP3     H1       HT       0.417000       1.00800           0
      9854 TIP3     426      TIP3     H2       HT       0.417000       1.00800           0
      9855 TIP3     427      TIP3     OH2      OT      -0.834000       15.9994           0
      9856 TIP3     427      TIP3     H1       HT       0.417000       1.00800           0
      9857 TIP3     427      TIP3     H2       HT       0.417000       1.00800           0
      9858 TIP3     428      TIP3     OH2      OT      -0.834000       15.9994           0
      9859 TIP3     428      TIP3     H1       HT       0.417000       1.00800           0
      9860 TIP3     428      TIP3     H2       HT       0.417000       1.00800           0
      9861 TIP3     429      TIP3     OH2      OT      -0.834000       15.9994           0
      9862 TIP3     429      TIP3     H1       HT       0.417000       1.00800           0
      9863 TIP3     429      TIP3     H2       HT       0.417000       1.00800           0
      9864 TIP3     430      TIP3     OH2      OT      -0.834000       15.9994           0
      9865 TIP3     430      TIP3     H1       HT       0.417000       1.00800           0
      9866 TIP3     430      TIP3     H2       HT       0.417000       1.00800           0
      9867 TIP3     431      TIP3     OH2      OT      -0.834000       15.9994           0
      9868 TIP3     431      TIP3     H1       HT       0.417000       1.00800           0
      9869 TIP3     431      TIP3     H2       HT       0.417000       1.00800           0
      9870 TIP3     432      TIP3     OH2      OT      -0.834000       15.9994           0
      9871 TIP3     432      TIP3     H1       HT       0.417000       1.00800           0
      9872 TIP3     432      TIP3     H2       HT       0.417000       1.00800           0
      9873 TIP3     433      TIP3     OH2      OT      -0.834000       15.9994           0
      9874 TIP3     433      TIP3     H1       HT       0.417000       1.00800           0
      9875 TIP3     433      TIP3     H2       HT       0.417000       1.00800           0
      9876 TIP3     434      TIP3     OH2      OT      -0.834000       15.9994           0
      9877 TIP3     434      TIP3     H1       HT       0.417000       1.00800           0
      9878 TIP3     434      TIP3     H2       HT       0.417000       1.00800           0
      9879 TIP3     435      TIP3     OH2      OT      -0.834000       15.9994           0
      9880 TIP3     435      TIP3     H1       HT       0.417000       1.00800           0
      9881 TIP3     435      TIP3     H2       HT       0.417000       1.00800           0
      9882 TIP3     436      TIP3     OH2      OT      -0.834000       15.9994           0
      9883 TIP3     436      TIP3     H1       HT       0.417000       1.00800           0
      9884 TIP3     436      TIP3     H2       HT       0.417000       1.00800           0
      9885 TIP3     437      TIP3     OH2      OT      -0.834000       15.9994           0
      9886 TIP3     437      TIP3     H1       HT       0.417000       1.00800           0
      9887 TIP3     437      TIP3     H2       HT       0.417000       1.00800           0
      9888 TIP3     438      TIP3     OH2      OT      -0.834000       15.9994           0
      9889 TIP3     438      TIP3     H1       HT       0.417000       1.00800           0
      9890 TIP3     438      TIP3     H2       HT       0.417000       1.00800           0
      9891 TIP3     439      TIP3     OH2      OT      -0.834000       15.9994           0
      9892 TIP3     439      TIP3     H1       HT       0.417000       1.00800           0
      9893 TIP3     439      TIP3     H2       HT       0.417000       1.00800           0
      9894 TIP3     440      TIP3     OH2      OT      -0.834000       15.9994           0
      9895 TIP3     440      TIP3     H1       HT       0.417000       1.00800           0
      9896 TIP3     440      TIP3     H2       HT       0.417000       1.00800           0
      9897 TIP3     441      TIP3     OH2      OT      -0.834000       15.9994           0
      9898 TIP3     441      TIP3     H1       HT       0.417000       1.00800           0
      9899 TIP3     441      TIP3     H2       HT       0.417000       1.00800           0
      9900 TIP3     442      TIP3     OH2      OT      -0.834000       15.9994           0
      9901 TIP3     442      TIP3     H1       HT       0.417000       1.00800           0
      9902 TIP3     442      TIP3     H2       HT       0.417000       1.00800           0
      9903 TIP3     443      TIP3     OH2      OT      -0.834000       15.9994           0
      9904 TIP3     443      TIP3     H1       HT       0.417000       1.00800           0
      9905 TIP3     443      TIP3     H2       HT       0.417000       1.00800           0
      9906 TIP3     444      TIP3     OH2      OT      -0.834000       15.9994           0
      9907 TIP3     444      TIP3     H1       HT       0.417000       1.00800           0
      9908 TIP3     444      TIP3     H2       HT       0.417000       1.00800           0
      9909 TIP3     445      TIP3     OH2      OT      -0.834000       15.9994           0
      9910 TIP3     445      TIP3     H1       HT       0.417000       1.00800           0
      9911 TIP3     445      TIP3     H2       HT       0.417000       1.00800           0
      9912 TIP3     446      TIP3     OH2      OT      -0.834000       15.9994           0
      9913 TIP3     446      TIP3     H1       HT       0.417000       1.00800           0
      9914 TIP3     446      TIP3     H2       HT       0.417000       1.00800           0
      9915 TIP3     447      TIP3     OH2      OT      -0.834000       15.9994           0
      9916 TIP3     447      TIP3     H1       HT       0.417000       1.00800           0
      9917 TIP3     447      TIP3     H2       HT       0.417000       1.00800           0
      9918 TIP3     448      TIP3     OH2      OT      -0.834000       15.9994           0
      9919 TIP3     448      TIP3     H1       HT       0.417000       1.00800           0
      9920 TIP3     448      TIP3     H2       HT       0.417000       1.00800           0
      9921 TIP3     449      TIP3     OH2      OT      -0.834000       15.9994           0
      9922 TIP3     449      TIP3     H1       HT       0.417000       1.00800           0
      9923 TIP3     449      TIP3     H2       HT       0.417000       1.00800           0
      9924 TIP3     450      TIP3     OH2      OT      -0.834000       15.9994           0
      9925 TIP3     450      TIP3     H1       HT       0.417000       1.00800           0
      9926 TIP3     450      TIP3     H2       HT       0.417000       1.00800           0
      9927 TIP3     451      TIP3     OH2      OT      -0.834000       15.9994           0
      9928 TIP3     451      TIP3     H1       HT       0.417000       1.00800           0
      9929 TIP3     451      TIP3     H2       HT       0.417000       1.00800           0
      9930 TIP3     452      TIP3     OH2      OT      -0.834000       15.9994           0
      9931 TIP3     452      TIP3     H1       HT       0.417000       1.00800           0
      9932 TIP3     452      TIP3     H2       HT       0.417000       1.00800           0
      9933 TIP3     453      TIP3     OH2      OT      -0.834000       15.9994           0
      9934 TIP3     453      TIP3     H1       HT       0.417000       1.00800           0
      9935 TIP3     453      TIP3     H2       HT       0.417000       1.00800           0
      9936 TIP3     454      TIP3     OH2      OT      -0.834000       15.9994           0
      9937 TIP3     454      TIP3     H1       HT       0.417000       1.00800           0
      9938 TIP3     454      TIP3     H2       HT       0.417000       1.00800           0
      9939 TIP3     455      TIP3     OH2      OT      -0.834000       15.9994           0
      9940 TIP3     455      TIP3     H1       HT       0.417000       1.00800           0
      9941 TIP3     455      TIP3     H2       HT       0.417000       1.00800           0
      9942 TIP3     456      TIP3     OH2      OT      -0.834000       15.9994           0
      9943 TIP3     456      TIP3     H1       HT       0.417000       1.00800           0
      9944 TIP3     456      TIP3     H2       HT       0.417000       1.00800           0
      9945 TIP3     457      TIP3     OH2      OT      -0.834000       15.9994           0
      9946 TIP3     457      TIP3     H1       HT       0.417000       1.00800           0
      9947 TIP3     457      TIP3     H2       HT       0.417000       1.00800           0
      9948 TIP3     458      TIP3     OH2      OT      -0.834000       15.9994           0
      9949 TIP3     458      TIP3     H1       HT       0.417000       1.00800           0
      9950 TIP3     458      TIP3     H2       HT       0.417000       1.00800           0
      9951 TIP3     459      TIP3     OH2      OT      -0.834000       15.9994           0
      9952 TIP3     459      TIP3     H1       HT       0.417000       1.00800           0
      9953 TIP3     459      TIP3     H2       HT       0.417000       1.00800           0
      9954 TIP3     460      TIP3     OH2      OT      -0.834000       15.9994           0
      9955 TIP3     460      TIP3     H1       HT       0.417000       1.00800           0
      9956 TIP3     460      TIP3     H2       HT       0.417000       1.00800           0
      9957 TIP3     461      TIP3     OH2      OT      -0.834000       15.9994           0
      9958 TIP3     461      TIP3     H1       HT       0.417000       1.00800           0
      9959 TIP3     461      TIP3     H2       HT       0.417000       1.00800           0
      9960 TIP3     462      TIP3     OH2      OT      -0.834000       15.9994           0
      9961 TIP3     462      TIP3     H1       HT       0.417000       1.00800           0
      9962 TIP3     462      TIP3     H2       HT       0.417000       1.00800           0
      9963 TIP3     463      TIP3     OH2      OT      -0.834000       15.9994           0
      9964 TIP3     463      TIP3     H1       HT       0.417000       1.00800           0
      9965 TIP3     463      TIP3     H2       HT       0.417000       1.00800           0
      9966 TIP3     464      TIP3     OH2      OT      -0.834000       15.9994           0
      9967 TIP3     464      TIP3     H1       HT       0.417000       1.00800           0
      9968 TIP3     464      TIP3     H2       HT       0.417000       1.00800           0
      9969 TIP3     465      TIP3     OH2      OT      -0.834000       15.9994           0
      9970 TIP3     465      TIP3     H1       HT       0.417000       1.00800           0
      9971 TIP3     465      TIP3     H2       HT       0.417000       1.00800           0
      9972 TIP3     466      TIP3     OH2      OT      -0.834000       15.9994           0
      9973 TIP3     466      TIP3     H1       HT       0.417000       1.00800           0
      9974 TIP3     466      TIP3     H2       HT       0.417000       1.00800           0
      9975 TIP3     467      TIP3     OH2      OT      -0.834000       15.9994           0
      9976 TIP3     467      TIP3     H1       HT       0.417000       1.00800           0
      9977 TIP3     467      TIP3     H2       HT       0.417000       1.00800           0
      9978 TIP3     468      TIP3     OH2      OT      -0.834000       15.9994           0
      9979 TIP3     468      TIP3     H1       HT       0.417000       1.00800           0
      9980 TIP3     468      TIP3     H2       HT       0.417000       1.00800           0
      9981 TIP3     469      TIP3     OH2      OT      -0.834000       15.9994           0
      9982 TIP3     469      TIP3     H1       HT       0.417000       1.00800           0
      9983 TIP3     469      TIP3     H2       HT       0.417000       1.00800           0
      9984 TIP3     470      TIP3     OH2      OT      -0.834000       15.9994           0
      9985 TIP3     470      TIP3     H1       HT       0.417000       1.00800           0
      9986 TIP3     470      TIP3     H2       HT       0.417000       1.00800           0
      9987 TIP3     471      TIP3     OH2      OT      -0.834000       15.9994           0
      9988 TIP3     471      TIP3     H1       HT       0.417000       1.00800           0
      9989 TIP3     471      TIP3     H2       HT       0.417000       1.00800           0
      9990 TIP3     472      TIP3     OH2      OT      -0.834000       15.9994           0
      9991 TIP3     472      TIP3     H1       HT       0.417000       1.00800           0
      9992 TIP3     472      TIP3     H2       HT       0.417000       1.00800           0
      9993 TIP3     473      TIP3     OH2      OT      -0.834000       15.9994           0
      9994 TIP3     473      TIP3     H1       HT       0.417000       1.00800           0
      9995 TIP3     473      TIP3     H2       HT       0.417000       1.00800           0
      9996 TIP3     474      TIP3     OH2      OT      -0.834000       15.9994           0
      9997 TIP3     474      TIP3     H1       HT       0.417000       1.00800           0
      9998 TIP3     474      TIP3     H2       HT       0.417000       1.00800           0
      9999 TIP3     475      TIP3     OH2      OT      -0.834000       15.9994           0
     10000 TIP3     475      TIP3     H1       HT       0.417000       1.00800           0
     10001 TIP3     475      TIP3     H2       HT       0.417000       1.00800           0
     10002 TIP3     476      TIP3     OH2      OT      -0.834000       15.9994           0
     10003 TIP3     476      TIP3     H1       HT       0.417000       1.00800           0
     10004 TIP3     476      TIP3     H2       HT       0.417000       1.00800           0
     10005 TIP3     477      TIP3     OH2      OT      -0.834000       15.9994           0
     10006 TIP3     477      TIP3     H1       HT       0.417000       1.00800           0
     10007 TIP3     477      TIP3     H2       HT       0.417000       1.00800           0
     10008 TIP3     478      TIP3     OH2      OT      -0.834000       15.9994           0
     10009 TIP3     478      TIP3     H1       HT       0.417000       1.00800           0
     10010 TIP3     478      TIP3     H2       HT       0.417000       1.00800           0
     10011 TIP3     479      TIP3     OH2      OT      -0.834000       15.9994           0
     10012 TIP3     479      TIP3     H1       HT       0.417000       1.00800           0
     10013 TIP3     479      TIP3     H2       HT       0.417000       1.00800           0
     10014 TIP3     480      TIP3     OH2      OT      -0.834000       15.9994           0
     10015 TIP3     480      TIP3     H1       HT       0.417000       1.00800           0
     10016 TIP3     480      TIP3     H2       HT       0.417000       1.00800           0
     10017 TIP3     481      TIP3     OH2      OT      -0.834000       15.9994           0
     10018 TIP3     481      TIP3     H1       HT       0.417000       1.00800           0
     10019 TIP3     481      TIP3     H2       HT       0.417000       1.00800           0
     10020 TIP3     482      TIP3     OH2      OT      -0.834000       15.9994           0
     10021 TIP3     482      TIP3     H1       HT       0.417000       1.00800           0
     10022 TIP3     482      TIP3     H2       HT       0.417000       1.00800           0
     10023 TIP3     483      TIP3     OH2      OT      -0.834000       15.9994           0
     10024 TIP3     483      TIP3     H1       HT       0.417000       1.00800           0
     10025 TIP3     483      TIP3     H2       HT       0.417000       1.00800           0
     10026 TIP3     484      TIP3     OH2      OT      -0.834000       15.9994           0
     10027 TIP3     484      TIP3     H1       HT       0.417000       1.00800           0
     10028 TIP3     484      TIP3     H2       HT       0.417000       1.00800           0
     10029 TIP3     485      TIP3     OH2      OT      -0.834000       15.9994           0
     10030 TIP3     485      TIP3     H1       HT       0.417000       1.00800           0
     10031 TIP3     485      TIP3     H2       HT       0.417000       1.00800           0
     10032 TIP3     486      TIP3     OH2      OT      -0.834000       15.9994           0
     10033 TIP3     486      TIP3     H1       HT       0.417000       1.00800           0
     10034 TIP3     486      TIP3     H2       HT       0.417000       1.00800           0
     10035 TIP3     487      TIP3     OH2      OT      -0.834000       15.9994           0
     10036 TIP3     487      TIP3     H1       HT       0.417000       1.00800           0
     10037 TIP3     487      TIP3     H2       HT       0.417000       1.00800           0
     10038 TIP3     488      TIP3     OH2      OT      -0.834000       15.9994           0
     10039 TIP3     488      TIP3     H1       HT       0.417000       1.00800           0
     10040 TIP3     488      TIP3     H2       HT       0.417000       1.00800           0
     10041 TIP3     489      TIP3     OH2      OT      -0.834000       15.9994           0
     10042 TIP3     489      TIP3     H1       HT       0.417000       1.00800           0
     10043 TIP3     489      TIP3     H2       HT       0.417000       1.00800           0
     10044 TIP3     490      TIP3     OH2      OT      -0.834000       15.9994           0
     10045 TIP3     490      TIP3     H1       HT       0.417000       1.00800           0
     10046 TIP3     490      TIP3     H2       HT       0.417000       1.00800           0
     10047 TIP3     491      TIP3     OH2      OT      -0.834000       15.9994           0
     10048 TIP3     491      TIP3     H1       HT       0.417000       1.00800           0
     10049 TIP3     491      TIP3     H2       HT       0.417000       1.00800           0
     10050 TIP3     492      TIP3     OH2      OT      -0.834000       15.9994           0
     10051 TIP3     492      TIP3     H1       HT       0.417000       1.00800           0
     10052 TIP3     492      TIP3     H2       HT       0.417000       1.00800           0
     10053 TIP3     493      TIP3     OH2      OT      -0.834000       15.9994           0
     10054 TIP3     493      TIP3     H1       HT       0.417000       1.00800           0
     10055 TIP3     493      TIP3     H2       HT       0.417000       1.00800           0
     10056 TIP3     494      TIP3     OH2      OT      -0.834000       15.9994           0
     10057 TIP3     494      TIP3     H1       HT       0.417000       1.00800           0
     10058 TIP3     494      TIP3     H2       HT       0.417000       1.00800           0
     10059 TIP3     495      TIP3     OH2      OT      -0.834000       15.9994           0
     10060 TIP3     495      TIP3     H1       HT       0.417000       1.00800           0
     10061 TIP3     495      TIP3     H2       HT       0.417000       1.00800           0
     10062 TIP3     496      TIP3     OH2      OT      -0.834000       15.9994           0
     10063 TIP3     496      TIP3     H1       HT       0.417000       1.00800           0
     10064 TIP3     496      TIP3     H2       HT       0.417000       1.00800           0
     10065 TIP3     497      TIP3     OH2      OT      -0.834000       15.9994           0
     10066 TIP3     497      TIP3     H1       HT       0.417000       1.00800           0
     10067 TIP3     497      TIP3     H2       HT       0.417000       1.00800           0
     10068 TIP3     498      TIP3     OH2      OT      -0.834000       15.9994           0
     10069 TIP3     498      TIP3     H1       HT       0.417000       1.00800           0
     10070 TIP3     498      TIP3     H2       HT       0.417000       1.00800           0
     10071 TIP3     499      TIP3     OH2      OT      -0.834000       15.9994           0
     10072 TIP3     499      TIP3     H1       HT       0.417000       1.00800           0
     10073 TIP3     499      TIP3     H2       HT       0.417000       1.00800           0
     10074 TIP3     500      TIP3     OH2      OT      -0.834000       15.9994           0
     10075 TIP3     500      TIP3     H1       HT       0.417000       1.00800           0
     10076 TIP3     500      TIP3     H2       HT       0.417000       1.00800           0
     10077 TIP3     501      TIP3     OH2      OT      -0.834000       15.9994           0
     10078 TIP3     501      TIP3     H1       HT       0.417000       1.00800           0
     10079 TIP3     501      TIP3     H2       HT       0.417000       1.00800           0
     10080 TIP3     502      TIP3     OH2      OT      -0.834000       15.9994           0
     10081 TIP3     502      TIP3     H1       HT       0.417000       1.00800           0
     10082 TIP3     502      TIP3     H2       HT       0.417000       1.00800           0
     10083 TIP3     503      TIP3     OH2      OT      -0.834000       15.9994           0
     10084 TIP3     503      TIP3     H1       HT       0.417000       1.00800           0
     10085 TIP3     503      TIP3     H2       HT       0.417000       1.00800           0
     10086 TIP3     504      TIP3     OH2      OT      -0.834000       15.9994           0
     10087 TIP3     504      TIP3     H1       HT       0.417000       1.00800           0
     10088 TIP3     504      TIP3     H2       HT       0.417000       1.00800           0
     10089 TIP3     505      TIP3     OH2      OT      -0.834000       15.9994           0
     10090 TIP3     505      TIP3     H1       HT       0.417000       1.00800           0
     10091 TIP3     505      TIP3     H2       HT       0.417000       1.00800           0
     10092 TIP3     506      TIP3     OH2      OT      -0.834000       15.9994           0
     10093 TIP3     506      TIP3     H1       HT       0.417000       1.00800           0
     10094 TIP3     506      TIP3     H2       HT       0.417000       1.00800           0
     10095 TIP3     507      TIP3     OH2      OT      -0.834000       15.9994           0
     10096 TIP3     507      TIP3     H1       HT       0.417000       1.00800           0
     10097 TIP3     507      TIP3     H2       HT       0.417000       1.00800           0
     10098 TIP3     508      TIP3     OH2      OT      -0.834000       15.9994           0
     10099 TIP3     508      TIP3     H1       HT       0.417000       1.00800           0
     10100 TIP3     508      TIP3     H2       HT       0.417000       1.00800           0
     10101 TIP3     509      TIP3     OH2      OT      -0.834000       15.9994           0
     10102 TIP3     509      TIP3     H1       HT       0.417000       1.00800           0
     10103 TIP3     509      TIP3     H2       HT       0.417000       1.00800           0
     10104 TIP3     510      TIP3     OH2      OT      -0.834000       15.9994           0
     10105 TIP3     510      TIP3     H1       HT       0.417000       1.00800           0
     10106 TIP3     510      TIP3     H2       HT       0.417000       1.00800           0
     10107 TIP3     511      TIP3     OH2      OT      -0.834000       15.9994           0
     10108 TIP3     511      TIP3     H1       HT       0.417000       1.00800           0
     10109 TIP3     511      TIP3     H2       HT       0.417000       1.00800           0
     10110 TIP3     512      TIP3     OH2      OT      -0.834000       15.9994           0
     10111 TIP3     512      TIP3     H1       HT       0.417000       1.00800           0
     10112 TIP3     512      TIP3     H2       HT       0.417000       1.00800           0
     10113 TIP3     513      TIP3     OH2      OT      -0.834000       15.9994           0
     10114 TIP3     513      TIP3     H1       HT       0.417000       1.00800           0
     10115 TIP3     513      TIP3     H2       HT       0.417000       1.00800           0
     10116 TIP3     514      TIP3     OH2      OT      -0.834000       15.9994           0
     10117 TIP3     514      TIP3     H1       HT       0.417000       1.00800           0
     10118 TIP3     514      TIP3     H2       HT       0.417000       1.00800           0
     10119 TIP3     515      TIP3     OH2      OT      -0.834000       15.9994           0
     10120 TIP3     515      TIP3     H1       HT       0.417000       1.00800           0
     10121 TIP3     515      TIP3     H2       HT       0.417000       1.00800           0
     10122 TIP3     516      TIP3     OH2      OT      -0.834000       15.9994           0
     10123 TIP3     516      TIP3     H1       HT       0.417000       1.00800           0
     10124 TIP3     516      TIP3     H2       HT       0.417000       1.00800           0
     10125 TIP3     517      TIP3     OH2      OT      -0.834000       15.9994           0
     10126 TIP3     517      TIP3     H1       HT       0.417000       1.00800           0
     10127 TIP3     517      TIP3     H2       HT       0.417000       1.00800           0
     10128 TIP3     518      TIP3     OH2      OT      -0.834000       15.9994           0
     10129 TIP3     518      TIP3     H1       HT       0.417000       1.00800           0
     10130 TIP3     518      TIP3     H2       HT       0.417000       1.00800           0
     10131 TIP3     519      TIP3     OH2      OT      -0.834000       15.9994           0
     10132 TIP3     519      TIP3     H1       HT       0.417000       1.00800           0
     10133 TIP3     519      TIP3     H2       HT       0.417000       1.00800           0
     10134 TIP3     520      TIP3     OH2      OT      -0.834000       15.9994           0
     10135 TIP3     520      TIP3     H1       HT       0.417000       1.00800           0
     10136 TIP3     520      TIP3     H2       HT       0.417000       1.00800           0
     10137 TIP3     521      TIP3     OH2      OT      -0.834000       15.9994           0
     10138 TIP3     521      TIP3     H1       HT       0.417000       1.00800           0
     10139 TIP3     521      TIP3     H2       HT       0.417000       1.00800           0
     10140 TIP3     522      TIP3     OH2      OT      -0.834000       15.9994           0
     10141 TIP3     522      TIP3     H1       HT       0.417000       1.00800           0
     10142 TIP3     522      TIP3     H2       HT       0.417000       1.00800           0
     10143 TIP3     523      TIP3     OH2      OT      -0.834000       15.9994           0
     10144 TIP3     523      TIP3     H1       HT       0.417000       1.00800           0
     10145 TIP3     523      TIP3     H2       HT       0.417000       1.00800           0
     10146 TIP3     524      TIP3     OH2      OT      -0.834000       15.9994           0
     10147 TIP3     524      TIP3     H1       HT       0.417000       1.00800           0
     10148 TIP3     524      TIP3     H2       HT       0.417000       1.00800           0
     10149 TIP3     525      TIP3     OH2      OT      -0.834000       15.9994           0
     10150 TIP3     525      TIP3     H1       HT       0.417000       1.00800           0
     10151 TIP3     525      TIP3     H2       HT       0.417000       1.00800           0
     10152 TIP3     526      TIP3     OH2      OT      -0.834000       15.9994           0
     10153 TIP3     526      TIP3     H1       HT       0.417000       1.00800           0
     10154 TIP3     526      TIP3     H2       HT       0.417000       1.00800           0
     10155 TIP3     527      TIP3     OH2      OT      -0.834000       15.9994           0
     10156 TIP3     527      TIP3     H1       HT       0.417000       1.00800           0
     10157 TIP3     527      TIP3     H2       HT       0.417000       1.00800           0
     10158 TIP3     528      TIP3     OH2      OT      -0.834000       15.9994           0
     10159 TIP3     528      TIP3     H1       HT       0.417000       1.00800           0
     10160 TIP3     528      TIP3     H2       HT       0.417000       1.00800           0
     10161 TIP3     529      TIP3     OH2      OT      -0.834000       15.9994           0
     10162 TIP3     529      TIP3     H1       HT       0.417000       1.00800           0
     10163 TIP3     529      TIP3     H2       HT       0.417000       1.00800           0
     10164 TIP3     530      TIP3     OH2      OT      -0.834000       15.9994           0
     10165 TIP3     530      TIP3     H1       HT       0.417000       1.00800           0
     10166 TIP3     530      TIP3     H2       HT       0.417000       1.00800           0
     10167 TIP3     531      TIP3     OH2      OT      -0.834000       15.9994           0
     10168 TIP3     531      TIP3     H1       HT       0.417000       1.00800           0
     10169 TIP3     531      TIP3     H2       HT       0.417000       1.00800           0
     10170 TIP3     532      TIP3     OH2      OT      -0.834000       15.9994           0
     10171 TIP3     532      TIP3     H1       HT       0.417000       1.00800           0
     10172 TIP3     532      TIP3     H2       HT       0.417000       1.00800           0
     10173 TIP3     533      TIP3     OH2      OT      -0.834000       15.9994           0
     10174 TIP3     533      TIP3     H1       HT       0.417000       1.00800           0
     10175 TIP3     533      TIP3     H2       HT       0.417000       1.00800           0
     10176 TIP3     534      TIP3     OH2      OT      -0.834000       15.9994           0
     10177 TIP3     534      TIP3     H1       HT       0.417000       1.00800           0
     10178 TIP3     534      TIP3     H2       HT       0.417000       1.00800           0
     10179 TIP3     535      TIP3     OH2      OT      -0.834000       15.9994           0
     10180 TIP3     535      TIP3     H1       HT       0.417000       1.00800           0
     10181 TIP3     535      TIP3     H2       HT       0.417000       1.00800           0
     10182 TIP3     536      TIP3     OH2      OT      -0.834000       15.9994           0
     10183 TIP3     536      TIP3     H1       HT       0.417000       1.00800           0
     10184 TIP3     536      TIP3     H2       HT       0.417000       1.00800           0
     10185 TIP3     537      TIP3     OH2      OT      -0.834000       15.9994           0
     10186 TIP3     537      TIP3     H1       HT       0.417000       1.00800           0
     10187 TIP3     537      TIP3     H2       HT       0.417000       1.00800           0
     10188 TIP3     538      TIP3     OH2      OT      -0.834000       15.9994           0
     10189 TIP3     538      TIP3     H1       HT       0.417000       1.00800           0
     10190 TIP3     538      TIP3     H2       HT       0.417000       1.00800           0
     10191 TIP3     539      TIP3     OH2      OT      -0.834000       15.9994           0
     10192 TIP3     539      TIP3     H1       HT       0.417000       1.00800           0
     10193 TIP3     539      TIP3     H2       HT       0.417000       1.00800           0
     10194 TIP3     540      TIP3     OH2      OT      -0.834000       15.9994           0
     10195 TIP3     540      TIP3     H1       HT       0.417000       1.00800           0
     10196 TIP3     540      TIP3     H2       HT       0.417000       1.00800           0
     10197 TIP3     541      TIP3     OH2      OT      -0.834000       15.9994           0
     10198 TIP3     541      TIP3     H1       HT       0.417000       1.00800           0
     10199 TIP3     541      TIP3     H2       HT       0.417000       1.00800           0
     10200 TIP3     542      TIP3     OH2      OT      -0.834000       15.9994           0
     10201 TIP3     542      TIP3     H1       HT       0.417000       1.00800           0
     10202 TIP3     542      TIP3     H2       HT       0.417000       1.00800           0
     10203 TIP3     543      TIP3     OH2      OT      -0.834000       15.9994           0
     10204 TIP3     543      TIP3     H1       HT       0.417000       1.00800           0
     10205 TIP3     543      TIP3     H2       HT       0.417000       1.00800           0
     10206 TIP3     544      TIP3     OH2      OT      -0.834000       15.9994           0
     10207 TIP3     544      TIP3     H1       HT       0.417000       1.00800           0
     10208 TIP3     544      TIP3     H2       HT       0.417000       1.00800           0
     10209 TIP3     545      TIP3     OH2      OT      -0.834000       15.9994           0
     10210 TIP3     545      TIP3     H1       HT       0.417000       1.00800           0
     10211 TIP3     545      TIP3     H2       HT       0.417000       1.00800           0
     10212 TIP3     546      TIP3     OH2      OT      -0.834000       15.9994           0
     10213 TIP3     546      TIP3     H1       HT       0.417000       1.00800           0
     10214 TIP3     546      TIP3     H2       HT       0.417000       1.00800           0
     10215 TIP3     547      TIP3     OH2      OT      -0.834000       15.9994           0
     10216 TIP3     547      TIP3     H1       HT       0.417000       1.00800           0
     10217 TIP3     547      TIP3     H2       HT       0.417000       1.00800           0
     10218 TIP3     548      TIP3     OH2      OT      -0.834000       15.9994           0
     10219 TIP3     548      TIP3     H1       HT       0.417000       1.00800           0
     10220 TIP3     548      TIP3     H2       HT       0.417000       1.00800           0
     10221 TIP3     549      TIP3     OH2      OT      -0.834000       15.9994           0
     10222 TIP3     549      TIP3     H1       HT       0.417000       1.00800           0
     10223 TIP3     549      TIP3     H2       HT       0.417000       1.00800           0
     10224 TIP3     550      TIP3     OH2      OT      -0.834000       15.9994           0
     10225 TIP3     550      TIP3     H1       HT       0.417000       1.00800           0
     10226 TIP3     550      TIP3     H2       HT       0.417000       1.00800           0
     10227 TIP3     551      TIP3     OH2      OT      -0.834000       15.9994           0
     10228 TIP3     551      TIP3     H1       HT       0.417000       1.00800           0
     10229 TIP3     551      TIP3     H2       HT       0.417000       1.00800           0
     10230 TIP3     552      TIP3     OH2      OT      -0.834000       15.9994           0
     10231 TIP3     552      TIP3     H1       HT       0.417000       1.00800           0
     10232 TIP3     552      TIP3     H2       HT       0.417000       1.00800           0
     10233 TIP3     553      TIP3     OH2      OT      -0.834000       15.9994           0
     10234 TIP3     553      TIP3     H1       HT       0.417000       1.00800           0
     10235 TIP3     553      TIP3     H2       HT       0.417000       1.00800           0
     10236 TIP3     554      TIP3     OH2      OT      -0.834000       15.9994           0
     10237 TIP3     554      TIP3     H1       HT       0.417000       1.00800           0
     10238 TIP3     554      TIP3     H2       HT       0.417000       1.00800           0
     10239 TIP3     555      TIP3     OH2      OT      -0.834000       15.9994           0
     10240 TIP3     555      TIP3     H1       HT       0.417000       1.00800           0
     10241 TIP3     555      TIP3     H2       HT       0.417000       1.00800           0
     10242 TIP3     556      TIP3     OH2      OT      -0.834000       15.9994           0
     10243 TIP3     556      TIP3     H1       HT       0.417000       1.00800           0
     10244 TIP3     556      TIP3     H2       HT       0.417000       1.00800           0
     10245 TIP3     557      TIP3     OH2      OT      -0.834000       15.9994           0
     10246 TIP3     557      TIP3     H1       HT       0.417000       1.00800           0
     10247 TIP3     557      TIP3     H2       HT       0.417000       1.00800           0
     10248 TIP3     558      TIP3     OH2      OT      -0.834000       15.9994           0
     10249 TIP3     558      TIP3     H1       HT       0.417000       1.00800           0
     10250 TIP3     558      TIP3     H2       HT       0.417000       1.00800           0
     10251 TIP3     559      TIP3     OH2      OT      -0.834000       15.9994           0
     10252 TIP3     559      TIP3     H1       HT       0.417000       1.00800           0
     10253 TIP3     559      TIP3     H2       HT       0.417000       1.00800           0
     10254 TIP3     560      TIP3     OH2      OT      -0.834000       15.9994           0
     10255 TIP3     560      TIP3     H1       HT       0.417000       1.00800           0
     10256 TIP3     560      TIP3     H2       HT       0.417000       1.00800           0
     10257 TIP3     561      TIP3     OH2      OT      -0.834000       15.9994           0
     10258 TIP3     561      TIP3     H1       HT       0.417000       1.00800           0
     10259 TIP3     561      TIP3     H2       HT       0.417000       1.00800           0
     10260 TIP3     562      TIP3     OH2      OT      -0.834000       15.9994           0
     10261 TIP3     562      TIP3     H1       HT       0.417000       1.00800           0
     10262 TIP3     562      TIP3     H2       HT       0.417000       1.00800           0
     10263 TIP3     563      TIP3     OH2      OT      -0.834000       15.9994           0
     10264 TIP3     563      TIP3     H1       HT       0.417000       1.00800           0
     10265 TIP3     563      TIP3     H2       HT       0.417000       1.00800           0
     10266 TIP3     564      TIP3     OH2      OT      -0.834000       15.9994           0
     10267 TIP3     564      TIP3     H1       HT       0.417000       1.00800           0
     10268 TIP3     564      TIP3     H2       HT       0.417000       1.00800           0
     10269 TIP3     565      TIP3     OH2      OT      -0.834000       15.9994           0
     10270 TIP3     565      TIP3     H1       HT       0.417000       1.00800           0
     10271 TIP3     565      TIP3     H2       HT       0.417000       1.00800           0
     10272 TIP3     566      TIP3     OH2      OT      -0.834000       15.9994           0
     10273 TIP3     566      TIP3     H1       HT       0.417000       1.00800           0
     10274 TIP3     566      TIP3     H2       HT       0.417000       1.00800           0
     10275 TIP3     567      TIP3     OH2      OT      -0.834000       15.9994           0
     10276 TIP3     567      TIP3     H1       HT       0.417000       1.00800           0
     10277 TIP3     567      TIP3     H2       HT       0.417000       1.00800           0
     10278 TIP3     568      TIP3     OH2      OT      -0.834000       15.9994           0
     10279 TIP3     568      TIP3     H1       HT       0.417000       1.00800           0
     10280 TIP3     568      TIP3     H2       HT       0.417000       1.00800           0
     10281 TIP3     569      TIP3     OH2      OT      -0.834000       15.9994           0
     10282 TIP3     569      TIP3     H1       HT       0.417000       1.00800           0
     10283 TIP3     569      TIP3     H2       HT       0.417000       1.00800           0
     10284 TIP3     570      TIP3     OH2      OT      -0.834000       15.9994           0
     10285 TIP3     570      TIP3     H1       HT       0.417000       1.00800           0
     10286 TIP3     570      TIP3     H2       HT       0.417000       1.00800           0
     10287 TIP3     571      TIP3     OH2      OT      -0.834000       15.9994           0
     10288 TIP3     571      TIP3     H1       HT       0.417000       1.00800           0
     10289 TIP3     571      TIP3     H2       HT       0.417000       1.00800           0
     10290 TIP3     572      TIP3     OH2      OT      -0.834000       15.9994           0
     10291 TIP3     572      TIP3     H1       HT       0.417000       1.00800           0
     10292 TIP3     572      TIP3     H2       HT       0.417000       1.00800           0
     10293 TIP3     573      TIP3     OH2      OT      -0.834000       15.9994           0
     10294 TIP3     573      TIP3     H1       HT       0.417000       1.00800           0
     10295 TIP3     573      TIP3     H2       HT       0.417000       1.00800           0
     10296 TIP3     574      TIP3     OH2      OT      -0.834000       15.9994           0
     10297 TIP3     574      TIP3     H1       HT       0.417000       1.00800           0
     10298 TIP3     574      TIP3     H2       HT       0.417000       1.00800           0
     10299 TIP3     575      TIP3     OH2      OT      -0.834000       15.9994           0
     10300 TIP3     575      TIP3     H1       HT       0.417000       1.00800           0
     10301 TIP3     575      TIP3     H2       HT       0.417000       1.00800           0
     10302 TIP3     576      TIP3     OH2      OT      -0.834000       15.9994           0
     10303 TIP3     576      TIP3     H1       HT       0.417000       1.00800           0
     10304 TIP3     576      TIP3     H2       HT       0.417000       1.00800           0
     10305 TIP3     577      TIP3     OH2      OT      -0.834000       15.9994           0
     10306 TIP3     577      TIP3     H1       HT       0.417000       1.00800           0
     10307 TIP3     577      TIP3     H2       HT       0.417000       1.00800           0
     10308 TIP3     578      TIP3     OH2      OT      -0.834000       15.9994           0
     10309 TIP3     578      TIP3     H1       HT       0.417000       1.00800           0
     10310 TIP3     578      TIP3     H2       HT       0.417000       1.00800           0
     10311 TIP3     579      TIP3     OH2      OT      -0.834000       15.9994           0
     10312 TIP3     579      TIP3     H1       HT       0.417000       1.00800           0
     10313 TIP3     579      TIP3     H2       HT       0.417000       1.00800           0
     10314 TIP3     580      TIP3     OH2      OT      -0.834000       15.9994           0
     10315 TIP3     580      TIP3     H1       HT       0.417000       1.00800           0
     10316 TIP3     580      TIP3     H2       HT       0.417000       1.00800           0
     10317 TIP3     581      TIP3     OH2      OT      -0.834000       15.9994           0
     10318 TIP3     581      TIP3     H1       HT       0.417000       1.00800           0
     10319 TIP3     581      TIP3     H2       HT       0.417000       1.00800           0
     10320 TIP3     582      TIP3     OH2      OT      -0.834000       15.9994           0
     10321 TIP3     582      TIP3     H1       HT       0.417000       1.00800           0
     10322 TIP3     582      TIP3     H2       HT       0.417000       1.00800           0
     10323 TIP3     583      TIP3     OH2      OT      -0.834000       15.9994           0
     10324 TIP3     583      TIP3     H1       HT       0.417000       1.00800           0
     10325 TIP3     583      TIP3     H2       HT       0.417000       1.00800           0
     10326 TIP3     584      TIP3     OH2      OT      -0.834000       15.9994           0
     10327 TIP3     584      TIP3     H1       HT       0.417000       1.00800           0
     10328 TIP3     584      TIP3     H2       HT       0.417000       1.00800           0
     10329 TIP3     585      TIP3     OH2      OT      -0.834000       15.9994           0
     10330 TIP3     585      TIP3     H1       HT       0.417000       1.00800           0
     10331 TIP3     585      TIP3     H2       HT       0.417000       1.00800           0
     10332 TIP3     586      TIP3     OH2      OT      -0.834000       15.9994           0
     10333 TIP3     586      TIP3     H1       HT       0.417000       1.00800           0
     10334 TIP3     586      TIP3     H2       HT       0.417000       1.00800           0
     10335 TIP3     587      TIP3     OH2      OT      -0.834000       15.9994           0
     10336 TIP3     587      TIP3     H1       HT       0.417000       1.00800           0
     10337 TIP3     587      TIP3     H2       HT       0.417000       1.00800           0
     10338 TIP3     588      TIP3     OH2      OT      -0.834000       15.9994           0
     10339 TIP3     588      TIP3     H1       HT       0.417000       1.00800           0
     10340 TIP3     588      TIP3     H2       HT       0.417000       1.00800           0
     10341 TIP3     589      TIP3     OH2      OT      -0.834000       15.9994           0
     10342 TIP3     589      TIP3     H1       HT       0.417000       1.00800           0
     10343 TIP3     589      TIP3     H2       HT       0.417000       1.00800           0
     10344 TIP3     590      TIP3     OH2      OT      -0.834000       15.9994           0
     10345 TIP3     590      TIP3     H1       HT       0.417000       1.00800           0
     10346 TIP3     590      TIP3     H2       HT       0.417000       1.00800           0
     10347 TIP3     591      TIP3     OH2      OT      -0.834000       15.9994           0
     10348 TIP3     591      TIP3     H1       HT       0.417000       1.00800           0
     10349 TIP3     591      TIP3     H2       HT       0.417000       1.00800           0
     10350 TIP3     592      TIP3     OH2      OT      -0.834000       15.9994           0
     10351 TIP3     592      TIP3     H1       HT       0.417000       1.00800           0
     10352 TIP3     592      TIP3     H2       HT       0.417000       1.00800           0
     10353 TIP3     593      TIP3     OH2      OT      -0.834000       15.9994           0
     10354 TIP3     593      TIP3     H1       HT       0.417000       1.00800           0
     10355 TIP3     593      TIP3     H2       HT       0.417000       1.00800           0
     10356 TIP3     594      TIP3     OH2      OT      -0.834000       15.9994           0
     10357 TIP3     594      TIP3     H1       HT       0.417000       1.00800           0
     10358 TIP3     594      TIP3     H2       HT       0.417000       1.00800           0
     10359 TIP3     595      TIP3     OH2      OT      -0.834000       15.9994           0
     10360 TIP3     595      TIP3     H1       HT       0.417000       1.00800           0
     10361 TIP3     595      TIP3     H2       HT       0.417000       1.00800           0
     10362 TIP3     596      TIP3     OH2      OT      -0.834000       15.9994           0
     10363 TIP3     596      TIP3     H1       HT       0.417000       1.00800           0
     10364 TIP3     596      TIP3     H2       HT       0.417000       1.00800           0
     10365 TIP3     597      TIP3     OH2      OT      -0.834000       15.9994           0
     10366 TIP3     597      TIP3     H1       HT       0.417000       1.00800           0
     10367 TIP3     597      TIP3     H2       HT       0.417000       1.00800           0
     10368 TIP3     598      TIP3     OH2      OT      -0.834000       15.9994           0
     10369 TIP3     598      TIP3     H1       HT       0.417000       1.00800           0
     10370 TIP3     598      TIP3     H2       HT       0.417000       1.00800           0
     10371 TIP3     599      TIP3     OH2      OT      -0.834000       15.9994           0
     10372 TIP3     599      TIP3     H1       HT       0.417000       1.00800           0
     10373 TIP3     599      TIP3     H2       HT       0.417000       1.00800           0
     10374 TIP3     600      TIP3     OH2      OT      -0.834000       15.9994           0
     10375 TIP3     600      TIP3     H1       HT       0.417000       1.00800           0
     10376 TIP3     600      TIP3     H2       HT       0.417000       1.00800           0
     10377 TIP3     601      TIP3     OH2      OT      -0.834000       15.9994           0
     10378 TIP3     601      TIP3     H1       HT       0.417000       1.00800           0
     10379 TIP3     601      TIP3     H2       HT       0.417000       1.00800           0
     10380 TIP3     602      TIP3     OH2      OT      -0.834000       15.9994           0
     10381 TIP3     602      TIP3     H1       HT       0.417000       1.00800           0
     10382 TIP3     602      TIP3     H2       HT       0.417000       1.00800           0
     10383 TIP3     603      TIP3     OH2      OT      -0.834000       15.9994           0
     10384 TIP3     603      TIP3     H1       HT       0.417000       1.00800           0
     10385 TIP3     603      TIP3     H2       HT       0.417000       1.00800           0
     10386 TIP3     604      TIP3     OH2      OT      -0.834000       15.9994           0
     10387 TIP3     604      TIP3     H1       HT       0.417000       1.00800           0
     10388 TIP3     604      TIP3     H2       HT       0.417000       1.00800           0
     10389 TIP3     605      TIP3     OH2      OT      -0.834000       15.9994           0
     10390 TIP3     605      TIP3     H1       HT       0.417000       1.00800           0
     10391 TIP3     605      TIP3     H2       HT       0.417000       1.00800           0
     10392 TIP3     606      TIP3     OH2      OT      -0.834000       15.9994           0
     10393 TIP3     606      TIP3     H1       HT       0.417000       1.00800           0
     10394 TIP3     606      TIP3     H2       HT       0.417000       1.00800           0
     10395 TIP3     607      TIP3     OH2      OT      -0.834000       15.9994           0
     10396 TIP3     607      TIP3     H1       HT       0.417000       1.00800           0
     10397 TIP3     607      TIP3     H2       HT       0.417000       1.00800           0
     10398 TIP3     608      TIP3     OH2      OT      -0.834000       15.9994           0
     10399 TIP3     608      TIP3     H1       HT       0.417000       1.00800           0
     10400 TIP3     608      TIP3     H2       HT       0.417000       1.00800           0
     10401 TIP3     609      TIP3     OH2      OT      -0.834000       15.9994           0
     10402 TIP3     609      TIP3     H1       HT       0.417000       1.00800           0
     10403 TIP3     609      TIP3     H2       HT       0.417000       1.00800           0
     10404 TIP3     610      TIP3     OH2      OT      -0.834000       15.9994           0
     10405 TIP3     610      TIP3     H1       HT       0.417000       1.00800           0
     10406 TIP3     610      TIP3     H2       HT       0.417000       1.00800           0
     10407 TIP3     611      TIP3     OH2      OT      -0.834000       15.9994           0
     10408 TIP3     611      TIP3     H1       HT       0.417000       1.00800           0
     10409 TIP3     611      TIP3     H2       HT       0.417000       1.00800           0
     10410 TIP3     612      TIP3     OH2      OT      -0.834000       15.9994           0
     10411 TIP3     612      TIP3     H1       HT       0.417000       1.00800           0
     10412 TIP3     612      TIP3     H2       HT       0.417000       1.00800           0
     10413 TIP3     613      TIP3     OH2      OT      -0.834000       15.9994           0
     10414 TIP3     613      TIP3     H1       HT       0.417000       1.00800           0
     10415 TIP3     613      TIP3     H2       HT       0.417000       1.00800           0
     10416 TIP3     614      TIP3     OH2      OT      -0.834000       15.9994           0
     10417 TIP3     614      TIP3     H1       HT       0.417000       1.00800           0
     10418 TIP3     614      TIP3     H2       HT       0.417000       1.00800           0
     10419 TIP3     615      TIP3     OH2      OT      -0.834000       15.9994           0
     10420 TIP3     615      TIP3     H1       HT       0.417000       1.00800           0
     10421 TIP3     615      TIP3     H2       HT       0.417000       1.00800           0
     10422 TIP3     616      TIP3     OH2      OT      -0.834000       15.9994           0
     10423 TIP3     616      TIP3     H1       HT       0.417000       1.00800           0
     10424 TIP3     616      TIP3     H2       HT       0.417000       1.00800           0
     10425 TIP3     617      TIP3     OH2      OT      -0.834000       15.9994           0
     10426 TIP3     617      TIP3     H1       HT       0.417000       1.00800           0
     10427 TIP3     617      TIP3     H2       HT       0.417000       1.00800           0
     10428 TIP3     618      TIP3     OH2      OT      -0.834000       15.9994           0
     10429 TIP3     618      TIP3     H1       HT       0.417000       1.00800           0
     10430 TIP3     618      TIP3     H2       HT       0.417000       1.00800           0
     10431 TIP3     619      TIP3     OH2      OT      -0.834000       15.9994           0
     10432 TIP3     619      TIP3     H1       HT       0.417000       1.00800           0
     10433 TIP3     619      TIP3     H2       HT       0.417000       1.00800           0
     10434 TIP3     620      TIP3     OH2      OT      -0.834000       15.9994           0
     10435 TIP3     620      TIP3     H1       HT       0.417000       1.00800           0
     10436 TIP3     620      TIP3     H2       HT       0.417000       1.00800           0
     10437 TIP3     621      TIP3     OH2      OT      -0.834000       15.9994           0
     10438 TIP3     621      TIP3     H1       HT       0.417000       1.00800           0
     10439 TIP3     621      TIP3     H2       HT       0.417000       1.00800           0
     10440 TIP3     622      TIP3     OH2      OT      -0.834000       15.9994           0
     10441 TIP3     622      TIP3     H1       HT       0.417000       1.00800           0
     10442 TIP3     622      TIP3     H2       HT       0.417000       1.00800           0
     10443 TIP3     623      TIP3     OH2      OT      -0.834000       15.9994           0
     10444 TIP3     623      TIP3     H1       HT       0.417000       1.00800           0
     10445 TIP3     623      TIP3     H2       HT       0.417000       1.00800           0
     10446 TIP3     624      TIP3     OH2      OT      -0.834000       15.9994           0
     10447 TIP3     624      TIP3     H1       HT       0.417000       1.00800           0
     10448 TIP3     624      TIP3     H2       HT       0.417000       1.00800           0
     10449 TIP3     625      TIP3     OH2      OT      -0.834000       15.9994           0
     10450 TIP3     625      TIP3     H1       HT       0.417000       1.00800           0
     10451 TIP3     625      TIP3     H2       HT       0.417000       1.00800           0
     10452 TIP3     626      TIP3     OH2      OT      -0.834000       15.9994           0
     10453 TIP3     626      TIP3     H1       HT       0.417000       1.00800           0
     10454 TIP3     626      TIP3     H2       HT       0.417000       1.00800           0
     10455 TIP3     627      TIP3     OH2      OT      -0.834000       15.9994           0
     10456 TIP3     627      TIP3     H1       HT       0.417000       1.00800           0
     10457 TIP3     627      TIP3     H2       HT       0.417000       1.00800           0
     10458 TIP3     628      TIP3     OH2      OT      -0.834000       15.9994           0
     10459 TIP3     628      TIP3     H1       HT       0.417000       1.00800           0
     10460 TIP3     628      TIP3     H2       HT       0.417000       1.00800           0
     10461 TIP3     629      TIP3     OH2      OT      -0.834000       15.9994           0
     10462 TIP3     629      TIP3     H1       HT       0.417000       1.00800           0
     10463 TIP3     629      TIP3     H2       HT       0.417000       1.00800           0
     10464 TIP3     630      TIP3     OH2      OT      -0.834000       15.9994           0
     10465 TIP3     630      TIP3     H1       HT       0.417000       1.00800           0
     10466 TIP3     630      TIP3     H2       HT       0.417000       1.00800           0
     10467 TIP3     631      TIP3     OH2      OT      -0.834000       15.9994           0
     10468 TIP3     631      TIP3     H1       HT       0.417000       1.00800           0
     10469 TIP3     631      TIP3     H2       HT       0.417000       1.00800           0
     10470 TIP3     632      TIP3     OH2      OT      -0.834000       15.9994           0
     10471 TIP3     632      TIP3     H1       HT       0.417000       1.00800           0
     10472 TIP3     632      TIP3     H2       HT       0.417000       1.00800           0
     10473 TIP3     633      TIP3     OH2      OT      -0.834000       15.9994           0
     10474 TIP3     633      TIP3     H1       HT       0.417000       1.00800           0
     10475 TIP3     633      TIP3     H2       HT       0.417000       1.00800           0
     10476 TIP3     634      TIP3     OH2      OT      -0.834000       15.9994           0
     10477 TIP3     634      TIP3     H1       HT       0.417000       1.00800           0
     10478 TIP3     634      TIP3     H2       HT       0.417000       1.00800           0
     10479 TIP3     635      TIP3     OH2      OT      -0.834000       15.9994           0
     10480 TIP3     635      TIP3     H1       HT       0.417000       1.00800           0
     10481 TIP3     635      TIP3     H2       HT       0.417000       1.00800           0
     10482 TIP3     636      TIP3     OH2      OT      -0.834000       15.9994           0
     10483 TIP3     636      TIP3     H1       HT       0.417000       1.00800           0
     10484 TIP3     636      TIP3     H2       HT       0.417000       1.00800           0
     10485 TIP3     637      TIP3     OH2      OT      -0.834000       15.9994           0
     10486 TIP3     637      TIP3     H1       HT       0.417000       1.00800           0
     10487 TIP3     637      TIP3     H2       HT       0.417000       1.00800           0
     10488 TIP3     638      TIP3     OH2      OT      -0.834000       15.9994           0
     10489 TIP3     638      TIP3     H1       HT       0.417000       1.00800           0
     10490 TIP3     638      TIP3     H2       HT       0.417000       1.00800           0
     10491 TIP3     639      TIP3     OH2      OT      -0.834000       15.9994           0
     10492 TIP3     639      TIP3     H1       HT       0.417000       1.00800           0
     10493 TIP3     639      TIP3     H2       HT       0.417000       1.00800           0
     10494 TIP3     640      TIP3     OH2      OT      -0.834000       15.9994           0
     10495 TIP3     640      TIP3     H1       HT       0.417000       1.00800           0
     10496 TIP3     640      TIP3     H2       HT       0.417000       1.00800           0
     10497 TIP3     641      TIP3     OH2      OT      -0.834000       15.9994           0
     10498 TIP3     641      TIP3     H1       HT       0.417000       1.00800           0
     10499 TIP3     641      TIP3     H2       HT       0.417000       1.00800           0
     10500 TIP3     642      TIP3     OH2      OT      -0.834000       15.9994           0
     10501 TIP3     642      TIP3     H1       HT       0.417000       1.00800           0
     10502 TIP3     642      TIP3     H2       HT       0.417000       1.00800           0
     10503 TIP3     643      TIP3     OH2      OT      -0.834000       15.9994           0
     10504 TIP3     643      TIP3     H1       HT       0.417000       1.00800           0
     10505 TIP3     643      TIP3     H2       HT       0.417000       1.00800           0
     10506 TIP3     644      TIP3     OH2      OT      -0.834000       15.9994           0
     10507 TIP3     644      TIP3     H1       HT       0.417000       1.00800           0
     10508 TIP3     644      TIP3     H2       HT       0.417000       1.00800           0
     10509 TIP3     645      TIP3     OH2      OT      -0.834000       15.9994           0
     10510 TIP3     645      TIP3     H1       HT       0.417000       1.00800           0
     10511 TIP3     645      TIP3     H2       HT       0.417000       1.00800           0
     10512 TIP3     646      TIP3     OH2      OT      -0.834000       15.9994           0
     10513 TIP3     646      TIP3     H1       HT       0.417000       1.00800           0
     10514 TIP3     646      TIP3     H2       HT       0.417000       1.00800           0
     10515 TIP3     647      TIP3     OH2      OT      -0.834000       15.9994           0
     10516 TIP3     647      TIP3     H1       HT       0.417000       1.00800           0
     10517 TIP3     647      TIP3     H2       HT       0.417000       1.00800           0
     10518 TIP3     648      TIP3     OH2      OT      -0.834000       15.9994           0
     10519 TIP3     648      TIP3     H1       HT       0.417000       1.00800           0
     10520 TIP3     648      TIP3     H2       HT       0.417000       1.00800           0
     10521 TIP3     649      TIP3     OH2      OT      -0.834000       15.9994           0
     10522 TIP3     649      TIP3     H1       HT       0.417000       1.00800           0
     10523 TIP3     649      TIP3     H2       HT       0.417000       1.00800           0
     10524 TIP3     650      TIP3     OH2      OT      -0.834000       15.9994           0
     10525 TIP3     650      TIP3     H1       HT       0.417000       1.00800           0
     10526 TIP3     650      TIP3     H2       HT       0.417000       1.00800           0
     10527 TIP3     651      TIP3     OH2      OT      -0.834000       15.9994           0
     10528 TIP3     651      TIP3     H1       HT       0.417000       1.00800           0
     10529 TIP3     651      TIP3     H2       HT       0.417000       1.00800           0
     10530 TIP3     652      TIP3     OH2      OT      -0.834000       15.9994           0
     10531 TIP3     652      TIP3     H1       HT       0.417000       1.00800           0
     10532 TIP3     652      TIP3     H2       HT       0.417000       1.00800           0
     10533 TIP3     653      TIP3     OH2      OT      -0.834000       15.9994           0
     10534 TIP3     653      TIP3     H1       HT       0.417000       1.00800           0
     10535 TIP3     653      TIP3     H2       HT       0.417000       1.00800           0
     10536 TIP3     654      TIP3     OH2      OT      -0.834000       15.9994           0
     10537 TIP3     654      TIP3     H1       HT       0.417000       1.00800           0
     10538 TIP3     654      TIP3     H2       HT       0.417000       1.00800           0
     10539 TIP3     655      TIP3     OH2      OT      -0.834000       15.9994           0
     10540 TIP3     655      TIP3     H1       HT       0.417000       1.00800           0
     10541 TIP3     655      TIP3     H2       HT       0.417000       1.00800           0
     10542 TIP3     656      TIP3     OH2      OT      -0.834000       15.9994           0
     10543 TIP3     656      TIP3     H1       HT       0.417000       1.00800           0
     10544 TIP3     656      TIP3     H2       HT       0.417000       1.00800           0
     10545 TIP3     657      TIP3     OH2      OT      -0.834000       15.9994           0
     10546 TIP3     657      TIP3     H1       HT       0.417000       1.00800           0
     10547 TIP3     657      TIP3     H2       HT       0.417000       1.00800           0
     10548 TIP3     658      TIP3     OH2      OT      -0.834000       15.9994           0
     10549 TIP3     658      TIP3     H1       HT       0.417000       1.00800           0
     10550 TIP3     658      TIP3     H2       HT       0.417000       1.00800           0
     10551 TIP3     659      TIP3     OH2      OT      -0.834000       15.9994           0
     10552 TIP3     659      TIP3     H1       HT       0.417000       1.00800           0
     10553 TIP3     659      TIP3     H2       HT       0.417000       1.00800           0
     10554 TIP3     660      TIP3     OH2      OT      -0.834000       15.9994           0
     10555 TIP3     660      TIP3     H1       HT       0.417000       1.00800           0
     10556 TIP3     660      TIP3     H2       HT       0.417000       1.00800           0
     10557 TIP3     661      TIP3     OH2      OT      -0.834000       15.9994           0
     10558 TIP3     661      TIP3     H1       HT       0.417000       1.00800           0
     10559 TIP3     661      TIP3     H2       HT       0.417000       1.00800           0
     10560 TIP3     662      TIP3     OH2      OT      -0.834000       15.9994           0
     10561 TIP3     662      TIP3     H1       HT       0.417000       1.00800           0
     10562 TIP3     662      TIP3     H2       HT       0.417000       1.00800           0
     10563 TIP3     663      TIP3     OH2      OT      -0.834000       15.9994           0
     10564 TIP3     663      TIP3     H1       HT       0.417000       1.00800           0
     10565 TIP3     663      TIP3     H2       HT       0.417000       1.00800           0
     10566 TIP3     664      TIP3     OH2      OT      -0.834000       15.9994           0
     10567 TIP3     664      TIP3     H1       HT       0.417000       1.00800           0
     10568 TIP3     664      TIP3     H2       HT       0.417000       1.00800           0
     10569 TIP3     665      TIP3     OH2      OT      -0.834000       15.9994           0
     10570 TIP3     665      TIP3     H1       HT       0.417000       1.00800           0
     10571 TIP3     665      TIP3     H2       HT       0.417000       1.00800           0
     10572 TIP3     666      TIP3     OH2      OT      -0.834000       15.9994           0
     10573 TIP3     666      TIP3     H1       HT       0.417000       1.00800           0
     10574 TIP3     666      TIP3     H2       HT       0.417000       1.00800           0
     10575 TIP3     667      TIP3     OH2      OT      -0.834000       15.9994           0
     10576 TIP3     667      TIP3     H1       HT       0.417000       1.00800           0
     10577 TIP3     667      TIP3     H2       HT       0.417000       1.00800           0
     10578 TIP3     668      TIP3     OH2      OT      -0.834000       15.9994           0
     10579 TIP3     668      TIP3     H1       HT       0.417000       1.00800           0
     10580 TIP3     668      TIP3     H2       HT       0.417000       1.00800           0
     10581 TIP3     669      TIP3     OH2      OT      -0.834000       15.9994           0
     10582 TIP3     669      TIP3     H1       HT       0.417000       1.00800           0
     10583 TIP3     669      TIP3     H2       HT       0.417000       1.00800           0
     10584 TIP3     670      TIP3     OH2      OT      -0.834000       15.9994           0
     10585 TIP3     670      TIP3     H1       HT       0.417000       1.00800           0
     10586 TIP3     670      TIP3     H2       HT       0.417000       1.00800           0
     10587 TIP3     671      TIP3     OH2      OT      -0.834000       15.9994           0
     10588 TIP3     671      TIP3     H1       HT       0.417000       1.00800           0
     10589 TIP3     671      TIP3     H2       HT       0.417000       1.00800           0
     10590 TIP3     672      TIP3     OH2      OT      -0.834000       15.9994           0
     10591 TIP3     672      TIP3     H1       HT       0.417000       1.00800           0
     10592 TIP3     672      TIP3     H2       HT       0.417000       1.00800           0
     10593 TIP3     673      TIP3     OH2      OT      -0.834000       15.9994           0
     10594 TIP3     673      TIP3     H1       HT       0.417000       1.00800           0
     10595 TIP3     673      TIP3     H2       HT       0.417000       1.00800           0
     10596 TIP3     674      TIP3     OH2      OT      -0.834000       15.9994           0
     10597 TIP3     674      TIP3     H1       HT       0.417000       1.00800           0
     10598 TIP3     674      TIP3     H2       HT       0.417000       1.00800           0
     10599 TIP3     675      TIP3     OH2      OT      -0.834000       15.9994           0
     10600 TIP3     675      TIP3     H1       HT       0.417000       1.00800           0
     10601 TIP3     675      TIP3     H2       HT       0.417000       1.00800           0
     10602 TIP3     676      TIP3     OH2      OT      -0.834000       15.9994           0
     10603 TIP3     676      TIP3     H1       HT       0.417000       1.00800           0
     10604 TIP3     676      TIP3     H2       HT       0.417000       1.00800           0
     10605 TIP3     677      TIP3     OH2      OT      -0.834000       15.9994           0
     10606 TIP3     677      TIP3     H1       HT       0.417000       1.00800           0
     10607 TIP3     677      TIP3     H2       HT       0.417000       1.00800           0
     10608 TIP3     678      TIP3     OH2      OT      -0.834000       15.9994           0
     10609 TIP3     678      TIP3     H1       HT       0.417000       1.00800           0
     10610 TIP3     678      TIP3     H2       HT       0.417000       1.00800           0
     10611 TIP3     679      TIP3     OH2      OT      -0.834000       15.9994           0
     10612 TIP3     679      TIP3     H1       HT       0.417000       1.00800           0
     10613 TIP3     679      TIP3     H2       HT       0.417000       1.00800           0
     10614 TIP3     680      TIP3     OH2      OT      -0.834000       15.9994           0
     10615 TIP3     680      TIP3     H1       HT       0.417000       1.00800           0
     10616 TIP3     680      TIP3     H2       HT       0.417000       1.00800           0
     10617 TIP3     681      TIP3     OH2      OT      -0.834000       15.9994           0
     10618 TIP3     681      TIP3     H1       HT       0.417000       1.00800           0
     10619 TIP3     681      TIP3     H2       HT       0.417000       1.00800           0
     10620 TIP3     682      TIP3     OH2      OT      -0.834000       15.9994           0
     10621 TIP3     682      TIP3     H1       HT       0.417000       1.00800           0
     10622 TIP3     682      TIP3     H2       HT       0.417000       1.00800           0
     10623 TIP3     683      TIP3     OH2      OT      -0.834000       15.9994           0
     10624 TIP3     683      TIP3     H1       HT       0.417000       1.00800           0
     10625 TIP3     683      TIP3     H2       HT       0.417000       1.00800           0
     10626 TIP3     684      TIP3     OH2      OT      -0.834000       15.9994           0
     10627 TIP3     684      TIP3     H1       HT       0.417000       1.00800           0
     10628 TIP3     684      TIP3     H2       HT       0.417000       1.00800           0
     10629 TIP3     685      TIP3     OH2      OT      -0.834000       15.9994           0
     10630 TIP3     685      TIP3     H1       HT       0.417000       1.00800           0
     10631 TIP3     685      TIP3     H2       HT       0.417000       1.00800           0
     10632 TIP3     686      TIP3     OH2      OT      -0.834000       15.9994           0
     10633 TIP3     686      TIP3     H1       HT       0.417000       1.00800           0
     10634 TIP3     686      TIP3     H2       HT       0.417000       1.00800           0
     10635 TIP3     687      TIP3     OH2      OT      -0.834000       15.9994           0
     10636 TIP3     687      TIP3     H1       HT       0.417000       1.00800           0
     10637 TIP3     687      TIP3     H2       HT       0.417000       1.00800           0
     10638 TIP3     688      TIP3     OH2      OT      -0.834000       15.9994           0
     10639 TIP3     688      TIP3     H1       HT       0.417000       1.00800           0
     10640 TIP3     688      TIP3     H2       HT       0.417000       1.00800           0
     10641 TIP3     689      TIP3     OH2      OT      -0.834000       15.9994           0
     10642 TIP3     689      TIP3     H1       HT       0.417000       1.00800           0
     10643 TIP3     689      TIP3     H2       HT       0.417000       1.00800           0
     10644 TIP3     690      TIP3     OH2      OT      -0.834000       15.9994           0
     10645 TIP3     690      TIP3     H1       HT       0.417000       1.00800           0
     10646 TIP3     690      TIP3     H2       HT       0.417000       1.00800           0
     10647 TIP3     691      TIP3     OH2      OT      -0.834000       15.9994           0
     10648 TIP3     691      TIP3     H1       HT       0.417000       1.00800           0
     10649 TIP3     691      TIP3     H2       HT       0.417000       1.00800           0
     10650 TIP3     692      TIP3     OH2      OT      -0.834000       15.9994           0
     10651 TIP3     692      TIP3     H1       HT       0.417000       1.00800           0
     10652 TIP3     692      TIP3     H2       HT       0.417000       1.00800           0
     10653 TIP3     693      TIP3     OH2      OT      -0.834000       15.9994           0
     10654 TIP3     693      TIP3     H1       HT       0.417000       1.00800           0
     10655 TIP3     693      TIP3     H2       HT       0.417000       1.00800           0
     10656 TIP3     694      TIP3     OH2      OT      -0.834000       15.9994           0
     10657 TIP3     694      TIP3     H1       HT       0.417000       1.00800           0
     10658 TIP3     694      TIP3     H2       HT       0.417000       1.00800           0
     10659 TIP3     695      TIP3     OH2      OT      -0.834000       15.9994           0
     10660 TIP3     695      TIP3     H1       HT       0.417000       1.00800           0
     10661 TIP3     695      TIP3     H2       HT       0.417000       1.00800           0
     10662 TIP3     696      TIP3     OH2      OT      -0.834000       15.9994           0
     10663 TIP3     696      TIP3     H1       HT       0.417000       1.00800           0
     10664 TIP3     696      TIP3     H2       HT       0.417000       1.00800           0
     10665 TIP3     697      TIP3     OH2      OT      -0.834000       15.9994           0
     10666 TIP3     697      TIP3     H1       HT       0.417000       1.00800           0
     10667 TIP3     697      TIP3     H2       HT       0.417000       1.00800           0
     10668 TIP3     698      TIP3     OH2      OT      -0.834000       15.9994           0
     10669 TIP3     698      TIP3     H1       HT       0.417000       1.00800           0
     10670 TIP3     698      TIP3     H2       HT       0.417000       1.00800           0
     10671 TIP3     699      TIP3     OH2      OT      -0.834000       15.9994           0
     10672 TIP3     699      TIP3     H1       HT       0.417000       1.00800           0
     10673 TIP3     699      TIP3     H2       HT       0.417000       1.00800           0
     10674 TIP3     700      TIP3     OH2      OT      -0.834000       15.9994           0
     10675 TIP3     700      TIP3     H1       HT       0.417000       1.00800           0
     10676 TIP3     700      TIP3     H2       HT       0.417000       1.00800           0
     10677 TIP3     701      TIP3     OH2      OT      -0.834000       15.9994           0
     10678 TIP3     701      TIP3     H1       HT       0.417000       1.00800           0
     10679 TIP3     701      TIP3     H2       HT       0.417000       1.00800           0
     10680 TIP3     702      TIP3     OH2      OT      -0.834000       15.9994           0
     10681 TIP3     702      TIP3     H1       HT       0.417000       1.00800           0
     10682 TIP3     702      TIP3     H2       HT       0.417000       1.00800           0
     10683 TIP3     703      TIP3     OH2      OT      -0.834000       15.9994           0
     10684 TIP3     703      TIP3     H1       HT       0.417000       1.00800           0
     10685 TIP3     703      TIP3     H2       HT       0.417000       1.00800           0
     10686 TIP3     704      TIP3     OH2      OT      -0.834000       15.9994           0
     10687 TIP3     704      TIP3     H1       HT       0.417000       1.00800           0
     10688 TIP3     704      TIP3     H2       HT       0.417000       1.00800           0
     10689 TIP3     705      TIP3     OH2      OT      -0.834000       15.9994           0
     10690 TIP3     705      TIP3     H1       HT       0.417000       1.00800           0
     10691 TIP3     705      TIP3     H2       HT       0.417000       1.00800           0
     10692 TIP3     706      TIP3     OH2      OT      -0.834000       15.9994           0
     10693 TIP3     706      TIP3     H1       HT       0.417000       1.00800           0
     10694 TIP3     706      TIP3     H2       HT       0.417000       1.00800           0
     10695 TIP3     707      TIP3     OH2      OT      -0.834000       15.9994           0
     10696 TIP3     707      TIP3     H1       HT       0.417000       1.00800           0
     10697 TIP3     707      TIP3     H2       HT       0.417000       1.00800           0
     10698 TIP3     708      TIP3     OH2      OT      -0.834000       15.9994           0
     10699 TIP3     708      TIP3     H1       HT       0.417000       1.00800           0
     10700 TIP3     708      TIP3     H2       HT       0.417000       1.00800           0
     10701 TIP3     709      TIP3     OH2      OT      -0.834000       15.9994           0
     10702 TIP3     709      TIP3     H1       HT       0.417000       1.00800           0
     10703 TIP3     709      TIP3     H2       HT       0.417000       1.00800           0
     10704 TIP3     710      TIP3     OH2      OT      -0.834000       15.9994           0
     10705 TIP3     710      TIP3     H1       HT       0.417000       1.00800           0
     10706 TIP3     710      TIP3     H2       HT       0.417000       1.00800           0
     10707 TIP3     711      TIP3     OH2      OT      -0.834000       15.9994           0
     10708 TIP3     711      TIP3     H1       HT       0.417000       1.00800           0
     10709 TIP3     711      TIP3     H2       HT       0.417000       1.00800           0
     10710 TIP3     712      TIP3     OH2      OT      -0.834000       15.9994           0
     10711 TIP3     712      TIP3     H1       HT       0.417000       1.00800           0
     10712 TIP3     712      TIP3     H2       HT       0.417000       1.00800           0
     10713 TIP3     713      TIP3     OH2      OT      -0.834000       15.9994           0
     10714 TIP3     713      TIP3     H1       HT       0.417000       1.00800           0
     10715 TIP3     713      TIP3     H2       HT       0.417000       1.00800           0
     10716 TIP3     714      TIP3     OH2      OT      -0.834000       15.9994           0
     10717 TIP3     714      TIP3     H1       HT       0.417000       1.00800           0
     10718 TIP3     714      TIP3     H2       HT       0.417000       1.00800           0
     10719 TIP3     715      TIP3     OH2      OT      -0.834000       15.9994           0
     10720 TIP3     715      TIP3     H1       HT       0.417000       1.00800           0
     10721 TIP3     715      TIP3     H2       HT       0.417000       1.00800           0
     10722 TIP3     716      TIP3     OH2      OT      -0.834000       15.9994           0
     10723 TIP3     716      TIP3     H1       HT       0.417000       1.00800           0
     10724 TIP3     716      TIP3     H2       HT       0.417000       1.00800           0
     10725 TIP3     717      TIP3     OH2      OT      -0.834000       15.9994           0
     10726 TIP3     717      TIP3     H1       HT       0.417000       1.00800           0
     10727 TIP3     717      TIP3     H2       HT       0.417000       1.00800           0
     10728 TIP3     718      TIP3     OH2      OT      -0.834000       15.9994           0
     10729 TIP3     718      TIP3     H1       HT       0.417000       1.00800           0
     10730 TIP3     718      TIP3     H2       HT       0.417000       1.00800           0
     10731 TIP3     719      TIP3     OH2      OT      -0.834000       15.9994           0
     10732 TIP3     719      TIP3     H1       HT       0.417000       1.00800           0
     10733 TIP3     719      TIP3     H2       HT       0.417000       1.00800           0
     10734 TIP3     720      TIP3     OH2      OT      -0.834000       15.9994           0
     10735 TIP3     720      TIP3     H1       HT       0.417000       1.00800           0
     10736 TIP3     720      TIP3     H2       HT       0.417000       1.00800           0
     10737 TIP3     721      TIP3     OH2      OT      -0.834000       15.9994           0
     10738 TIP3     721      TIP3     H1       HT       0.417000       1.00800           0
     10739 TIP3     721      TIP3     H2       HT       0.417000       1.00800           0
     10740 TIP3     722      TIP3     OH2      OT      -0.834000       15.9994           0
     10741 TIP3     722      TIP3     H1       HT       0.417000       1.00800           0
     10742 TIP3     722      TIP3     H2       HT       0.417000       1.00800           0
     10743 TIP3     723      TIP3     OH2      OT      -0.834000       15.9994           0
     10744 TIP3     723      TIP3     H1       HT       0.417000       1.00800           0
     10745 TIP3     723      TIP3     H2       HT       0.417000       1.00800           0
     10746 TIP3     724      TIP3     OH2      OT      -0.834000       15.9994           0
     10747 TIP3     724      TIP3     H1       HT       0.417000       1.00800           0
     10748 TIP3     724      TIP3     H2       HT       0.417000       1.00800           0
     10749 TIP3     725      TIP3     OH2      OT      -0.834000       15.9994           0
     10750 TIP3     725      TIP3     H1       HT       0.417000       1.00800           0
     10751 TIP3     725      TIP3     H2       HT       0.417000       1.00800           0
     10752 TIP3     726      TIP3     OH2      OT      -0.834000       15.9994           0
     10753 TIP3     726      TIP3     H1       HT       0.417000       1.00800           0
     10754 TIP3     726      TIP3     H2       HT       0.417000       1.00800           0
     10755 TIP3     727      TIP3     OH2      OT      -0.834000       15.9994           0
     10756 TIP3     727      TIP3     H1       HT       0.417000       1.00800           0
     10757 TIP3     727      TIP3     H2       HT       0.417000       1.00800           0
     10758 TIP3     728      TIP3     OH2      OT      -0.834000       15.9994           0
     10759 TIP3     728      TIP3     H1       HT       0.417000       1.00800           0
     10760 TIP3     728      TIP3     H2       HT       0.417000       1.00800           0
     10761 TIP3     729      TIP3     OH2      OT      -0.834000       15.9994           0
     10762 TIP3     729      TIP3     H1       HT       0.417000       1.00800           0
     10763 TIP3     729      TIP3     H2       HT       0.417000       1.00800           0
     10764 TIP3     730      TIP3     OH2      OT      -0.834000       15.9994           0
     10765 TIP3     730      TIP3     H1       HT       0.417000       1.00800           0
     10766 TIP3     730      TIP3     H2       HT       0.417000       1.00800           0
     10767 TIP3     731      TIP3     OH2      OT      -0.834000       15.9994           0
     10768 TIP3     731      TIP3     H1       HT       0.417000       1.00800           0
     10769 TIP3     731      TIP3     H2       HT       0.417000       1.00800           0
     10770 TIP3     732      TIP3     OH2      OT      -0.834000       15.9994           0
     10771 TIP3     732      TIP3     H1       HT       0.417000       1.00800           0
     10772 TIP3     732      TIP3     H2       HT       0.417000       1.00800           0
     10773 TIP3     733      TIP3     OH2      OT      -0.834000       15.9994           0
     10774 TIP3     733      TIP3     H1       HT       0.417000       1.00800           0
     10775 TIP3     733      TIP3     H2       HT       0.417000       1.00800           0
     10776 TIP3     734      TIP3     OH2      OT      -0.834000       15.9994           0
     10777 TIP3     734      TIP3     H1       HT       0.417000       1.00800           0
     10778 TIP3     734      TIP3     H2       HT       0.417000       1.00800           0
     10779 TIP3     735      TIP3     OH2      OT      -0.834000       15.9994           0
     10780 TIP3     735      TIP3     H1       HT       0.417000       1.00800           0
     10781 TIP3     735      TIP3     H2       HT       0.417000       1.00800           0
     10782 TIP3     736      TIP3     OH2      OT      -0.834000       15.9994           0
     10783 TIP3     736      TIP3     H1       HT       0.417000       1.00800           0
     10784 TIP3     736      TIP3     H2       HT       0.417000       1.00800           0
     10785 TIP3     737      TIP3     OH2      OT      -0.834000       15.9994           0
     10786 TIP3     737      TIP3     H1       HT       0.417000       1.00800           0
     10787 TIP3     737      TIP3     H2       HT       0.417000       1.00800           0
     10788 TIP3     738      TIP3     OH2      OT      -0.834000       15.9994           0
     10789 TIP3     738      TIP3     H1       HT       0.417000       1.00800           0
     10790 TIP3     738      TIP3     H2       HT       0.417000       1.00800           0
     10791 TIP3     739      TIP3     OH2      OT      -0.834000       15.9994           0
     10792 TIP3     739      TIP3     H1       HT       0.417000       1.00800           0
     10793 TIP3     739      TIP3     H2       HT       0.417000       1.00800           0
     10794 TIP3     740      TIP3     OH2      OT      -0.834000       15.9994           0
     10795 TIP3     740      TIP3     H1       HT       0.417000       1.00800           0
     10796 TIP3     740      TIP3     H2       HT       0.417000       1.00800           0
     10797 TIP3     741      TIP3     OH2      OT      -0.834000       15.9994           0
     10798 TIP3     741      TIP3     H1       HT       0.417000       1.00800           0
     10799 TIP3     741      TIP3     H2       HT       0.417000       1.00800           0
     10800 TIP3     742      TIP3     OH2      OT      -0.834000       15.9994           0
     10801 TIP3     742      TIP3     H1       HT       0.417000       1.00800           0
     10802 TIP3     742      TIP3     H2       HT       0.417000       1.00800           0
     10803 TIP3     743      TIP3     OH2      OT      -0.834000       15.9994           0
     10804 TIP3     743      TIP3     H1       HT       0.417000       1.00800           0
     10805 TIP3     743      TIP3     H2       HT       0.417000       1.00800           0
     10806 TIP3     744      TIP3     OH2      OT      -0.834000       15.9994           0
     10807 TIP3     744      TIP3     H1       HT       0.417000       1.00800           0
     10808 TIP3     744      TIP3     H2       HT       0.417000       1.00800           0
     10809 TIP3     745      TIP3     OH2      OT      -0.834000       15.9994           0
     10810 TIP3     745      TIP3     H1       HT       0.417000       1.00800           0
     10811 TIP3     745      TIP3     H2       HT       0.417000       1.00800           0
     10812 TIP3     746      TIP3     OH2      OT      -0.834000       15.9994           0
     10813 TIP3     746      TIP3     H1       HT       0.417000       1.00800           0
     10814 TIP3     746      TIP3     H2       HT       0.417000       1.00800           0
     10815 TIP3     747      TIP3     OH2      OT      -0.834000       15.9994           0
     10816 TIP3     747      TIP3     H1       HT       0.417000       1.00800           0
     10817 TIP3     747      TIP3     H2       HT       0.417000       1.00800           0
     10818 TIP3     748      TIP3     OH2      OT      -0.834000       15.9994           0
     10819 TIP3     748      TIP3     H1       HT       0.417000       1.00800           0
     10820 TIP3     748      TIP3     H2       HT       0.417000       1.00800           0
     10821 TIP3     749      TIP3     OH2      OT      -0.834000       15.9994           0
     10822 TIP3     749      TIP3     H1       HT       0.417000       1.00800           0
     10823 TIP3     749      TIP3     H2       HT       0.417000       1.00800           0
     10824 TIP3     750      TIP3     OH2      OT      -0.834000       15.9994           0
     10825 TIP3     750      TIP3     H1       HT       0.417000       1.00800           0
     10826 TIP3     750      TIP3     H2       HT       0.417000       1.00800           0
     10827 TIP3     751      TIP3     OH2      OT      -0.834000       15.9994           0
     10828 TIP3     751      TIP3     H1       HT       0.417000       1.00800           0
     10829 TIP3     751      TIP3     H2       HT       0.417000       1.00800           0
     10830 TIP3     752      TIP3     OH2      OT      -0.834000       15.9994           0
     10831 TIP3     752      TIP3     H1       HT       0.417000       1.00800           0
     10832 TIP3     752      TIP3     H2       HT       0.417000       1.00800           0
     10833 TIP3     753      TIP3     OH2      OT      -0.834000       15.9994           0
     10834 TIP3     753      TIP3     H1       HT       0.417000       1.00800           0
     10835 TIP3     753      TIP3     H2       HT       0.417000       1.00800           0
     10836 TIP3     754      TIP3     OH2      OT      -0.834000       15.9994           0
     10837 TIP3     754      TIP3     H1       HT       0.417000       1.00800           0
     10838 TIP3     754      TIP3     H2       HT       0.417000       1.00800           0
     10839 TIP3     755      TIP3     OH2      OT      -0.834000       15.9994           0
     10840 TIP3     755      TIP3     H1       HT       0.417000       1.00800           0
     10841 TIP3     755      TIP3     H2       HT       0.417000       1.00800           0
     10842 TIP3     756      TIP3     OH2      OT      -0.834000       15.9994           0
     10843 TIP3     756      TIP3     H1       HT       0.417000       1.00800           0
     10844 TIP3     756      TIP3     H2       HT       0.417000       1.00800           0
     10845 TIP3     757      TIP3     OH2      OT      -0.834000       15.9994           0
     10846 TIP3     757      TIP3     H1       HT       0.417000       1.00800           0
     10847 TIP3     757      TIP3     H2       HT       0.417000       1.00800           0
     10848 TIP3     758      TIP3     OH2      OT      -0.834000       15.9994           0
     10849 TIP3     758      TIP3     H1       HT       0.417000       1.00800           0
     10850 TIP3     758      TIP3     H2       HT       0.417000       1.00800           0
     10851 TIP3     759      TIP3     OH2      OT      -0.834000       15.9994           0
     10852 TIP3     759      TIP3     H1       HT       0.417000       1.00800           0
     10853 TIP3     759      TIP3     H2       HT       0.417000       1.00800           0
     10854 TIP3     760      TIP3     OH2      OT      -0.834000       15.9994           0
     10855 TIP3     760      TIP3     H1       HT       0.417000       1.00800           0
     10856 TIP3     760      TIP3     H2       HT       0.417000       1.00800           0
     10857 TIP3     761      TIP3     OH2      OT      -0.834000       15.9994           0
     10858 TIP3     761      TIP3     H1       HT       0.417000       1.00800           0
     10859 TIP3     761      TIP3     H2       HT       0.417000       1.00800           0
     10860 TIP3     762      TIP3     OH2      OT      -0.834000       15.9994           0
     10861 TIP3     762      TIP3     H1       HT       0.417000       1.00800           0
     10862 TIP3     762      TIP3     H2       HT       0.417000       1.00800           0
     10863 TIP3     763      TIP3     OH2      OT      -0.834000       15.9994           0
     10864 TIP3     763      TIP3     H1       HT       0.417000       1.00800           0
     10865 TIP3     763      TIP3     H2       HT       0.417000       1.00800           0
     10866 TIP3     764      TIP3     OH2      OT      -0.834000       15.9994           0
     10867 TIP3     764      TIP3     H1       HT       0.417000       1.00800           0
     10868 TIP3     764      TIP3     H2       HT       0.417000       1.00800           0
     10869 TIP3     765      TIP3     OH2      OT      -0.834000       15.9994           0
     10870 TIP3     765      TIP3     H1       HT       0.417000       1.00800           0
     10871 TIP3     765      TIP3     H2       HT       0.417000       1.00800           0
     10872 TIP3     766      TIP3     OH2      OT      -0.834000       15.9994           0
     10873 TIP3     766      TIP3     H1       HT       0.417000       1.00800           0
     10874 TIP3     766      TIP3     H2       HT       0.417000       1.00800           0
     10875 TIP3     767      TIP3     OH2      OT      -0.834000       15.9994           0
     10876 TIP3     767      TIP3     H1       HT       0.417000       1.00800           0
     10877 TIP3     767      TIP3     H2       HT       0.417000       1.00800           0
     10878 TIP3     768      TIP3     OH2      OT      -0.834000       15.9994           0
     10879 TIP3     768      TIP3     H1       HT       0.417000       1.00800           0
     10880 TIP3     768      TIP3     H2       HT       0.417000       1.00800           0
     10881 TIP3     769      TIP3     OH2      OT      -0.834000       15.9994           0
     10882 TIP3     769      TIP3     H1       HT       0.417000       1.00800           0
     10883 TIP3     769      TIP3     H2       HT       0.417000       1.00800           0
     10884 TIP3     770      TIP3     OH2      OT      -0.834000       15.9994           0
     10885 TIP3     770      TIP3     H1       HT       0.417000       1.00800           0
     10886 TIP3     770      TIP3     H2       HT       0.417000       1.00800           0
     10887 TIP3     771      TIP3     OH2      OT      -0.834000       15.9994           0
     10888 TIP3     771      TIP3     H1       HT       0.417000       1.00800           0
     10889 TIP3     771      TIP3     H2       HT       0.417000       1.00800           0
     10890 TIP3     772      TIP3     OH2      OT      -0.834000       15.9994           0
     10891 TIP3     772      TIP3     H1       HT       0.417000       1.00800           0
     10892 TIP3     772      TIP3     H2       HT       0.417000       1.00800           0
     10893 TIP3     773      TIP3     OH2      OT      -0.834000       15.9994           0
     10894 TIP3     773      TIP3     H1       HT       0.417000       1.00800           0
     10895 TIP3     773      TIP3     H2       HT       0.417000       1.00800           0
     10896 TIP3     774      TIP3     OH2      OT      -0.834000       15.9994           0
     10897 TIP3     774      TIP3     H1       HT       0.417000       1.00800           0
     10898 TIP3     774      TIP3     H2       HT       0.417000       1.00800           0
     10899 TIP3     775      TIP3     OH2      OT      -0.834000       15.9994           0
     10900 TIP3     775      TIP3     H1       HT       0.417000       1.00800           0
     10901 TIP3     775      TIP3     H2       HT       0.417000       1.00800           0
     10902 TIP3     776      TIP3     OH2      OT      -0.834000       15.9994           0
     10903 TIP3     776      TIP3     H1       HT       0.417000       1.00800           0
     10904 TIP3     776      TIP3     H2       HT       0.417000       1.00800           0
     10905 TIP3     777      TIP3     OH2      OT      -0.834000       15.9994           0
     10906 TIP3     777      TIP3     H1       HT       0.417000       1.00800           0
     10907 TIP3     777      TIP3     H2       HT       0.417000       1.00800           0
     10908 TIP3     778      TIP3     OH2      OT      -0.834000       15.9994           0
     10909 TIP3     778      TIP3     H1       HT       0.417000       1.00800           0
     10910 TIP3     778      TIP3     H2       HT       0.417000       1.00800           0
     10911 TIP3     779      TIP3     OH2      OT      -0.834000       15.9994           0
     10912 TIP3     779      TIP3     H1       HT       0.417000       1.00800           0
     10913 TIP3     779      TIP3     H2       HT       0.417000       1.00800           0
     10914 TIP3     780      TIP3     OH2      OT      -0.834000       15.9994           0
     10915 TIP3     780      TIP3     H1       HT       0.417000       1.00800           0
     10916 TIP3     780      TIP3     H2       HT       0.417000       1.00800           0
     10917 TIP3     781      TIP3     OH2      OT      -0.834000       15.9994           0
     10918 TIP3     781      TIP3     H1       HT       0.417000       1.00800           0
     10919 TIP3     781      TIP3     H2       HT       0.417000       1.00800           0
     10920 TIP3     782      TIP3     OH2      OT      -0.834000       15.9994           0
     10921 TIP3     782      TIP3     H1       HT       0.417000       1.00800           0
     10922 TIP3     782      TIP3     H2       HT       0.417000       1.00800           0
     10923 TIP3     783      TIP3     OH2      OT      -0.834000       15.9994           0
     10924 TIP3     783      TIP3     H1       HT       0.417000       1.00800           0
     10925 TIP3     783      TIP3     H2       HT       0.417000       1.00800           0
     10926 TIP3     784      TIP3     OH2      OT      -0.834000       15.9994           0
     10927 TIP3     784      TIP3     H1       HT       0.417000       1.00800           0
     10928 TIP3     784      TIP3     H2       HT       0.417000       1.00800           0
     10929 TIP3     785      TIP3     OH2      OT      -0.834000       15.9994           0
     10930 TIP3     785      TIP3     H1       HT       0.417000       1.00800           0
     10931 TIP3     785      TIP3     H2       HT       0.417000       1.00800           0
     10932 TIP3     786      TIP3     OH2      OT      -0.834000       15.9994           0
     10933 TIP3     786      TIP3     H1       HT       0.417000       1.00800           0
     10934 TIP3     786      TIP3     H2       HT       0.417000       1.00800           0
     10935 TIP3     787      TIP3     OH2      OT      -0.834000       15.9994           0
     10936 TIP3     787      TIP3     H1       HT       0.417000       1.00800           0
     10937 TIP3     787      TIP3     H2       HT       0.417000       1.00800           0
     10938 TIP3     788      TIP3     OH2      OT      -0.834000       15.9994           0
     10939 TIP3     788      TIP3     H1       HT       0.417000       1.00800           0
     10940 TIP3     788      TIP3     H2       HT       0.417000       1.00800           0
     10941 TIP3     789      TIP3     OH2      OT      -0.834000       15.9994           0
     10942 TIP3     789      TIP3     H1       HT       0.417000       1.00800           0
     10943 TIP3     789      TIP3     H2       HT       0.417000       1.00800           0
     10944 TIP3     790      TIP3     OH2      OT      -0.834000       15.9994           0
     10945 TIP3     790      TIP3     H1       HT       0.417000       1.00800           0
     10946 TIP3     790      TIP3     H2       HT       0.417000       1.00800           0
     10947 TIP3     791      TIP3     OH2      OT      -0.834000       15.9994           0
     10948 TIP3     791      TIP3     H1       HT       0.417000       1.00800           0
     10949 TIP3     791      TIP3     H2       HT       0.417000       1.00800           0
     10950 TIP3     792      TIP3     OH2      OT      -0.834000       15.9994           0
     10951 TIP3     792      TIP3     H1       HT       0.417000       1.00800           0
     10952 TIP3     792      TIP3     H2       HT       0.417000       1.00800           0
     10953 TIP3     793      TIP3     OH2      OT      -0.834000       15.9994           0
     10954 TIP3     793      TIP3     H1       HT       0.417000       1.00800           0
     10955 TIP3     793      TIP3     H2       HT       0.417000       1.00800           0
     10956 TIP3     794      TIP3     OH2      OT      -0.834000       15.9994           0
     10957 TIP3     794      TIP3     H1       HT       0.417000       1.00800           0
     10958 TIP3     794      TIP3     H2       HT       0.417000       1.00800           0
     10959 TIP3     795      TIP3     OH2      OT      -0.834000       15.9994           0
     10960 TIP3     795      TIP3     H1       HT       0.417000       1.00800           0
     10961 TIP3     795      TIP3     H2       HT       0.417000       1.00800           0
     10962 TIP3     796      TIP3     OH2      OT      -0.834000       15.9994           0
     10963 TIP3     796      TIP3     H1       HT       0.417000       1.00800           0
     10964 TIP3     796      TIP3     H2       HT       0.417000       1.00800           0
     10965 TIP3     797      TIP3     OH2      OT      -0.834000       15.9994           0
     10966 TIP3     797      TIP3     H1       HT       0.417000       1.00800           0
     10967 TIP3     797      TIP3     H2       HT       0.417000       1.00800           0
     10968 TIP3     798      TIP3     OH2      OT      -0.834000       15.9994           0
     10969 TIP3     798      TIP3     H1       HT       0.417000       1.00800           0
     10970 TIP3     798      TIP3     H2       HT       0.417000       1.00800           0
     10971 TIP3     799      TIP3     OH2      OT      -0.834000       15.9994           0
     10972 TIP3     799      TIP3     H1       HT       0.417000       1.00800           0
     10973 TIP3     799      TIP3     H2       HT       0.417000       1.00800           0
     10974 TIP3     800      TIP3     OH2      OT      -0.834000       15.9994           0
     10975 TIP3     800      TIP3     H1       HT       0.417000       1.00800           0
     10976 TIP3     800      TIP3     H2       HT       0.417000       1.00800           0
     10977 TIP3     801      TIP3     OH2      OT      -0.834000       15.9994           0
     10978 TIP3     801      TIP3     H1       HT       0.417000       1.00800           0
     10979 TIP3     801      TIP3     H2       HT       0.417000       1.00800           0
     10980 TIP3     802      TIP3     OH2      OT      -0.834000       15.9994           0
     10981 TIP3     802      TIP3     H1       HT       0.417000       1.00800           0
     10982 TIP3     802      TIP3     H2       HT       0.417000       1.00800           0
     10983 TIP3     803      TIP3     OH2      OT      -0.834000       15.9994           0
     10984 TIP3     803      TIP3     H1       HT       0.417000       1.00800           0
     10985 TIP3     803      TIP3     H2       HT       0.417000       1.00800           0
     10986 TIP3     804      TIP3     OH2      OT      -0.834000       15.9994           0
     10987 TIP3     804      TIP3     H1       HT       0.417000       1.00800           0
     10988 TIP3     804      TIP3     H2       HT       0.417000       1.00800           0
     10989 TIP3     805      TIP3     OH2      OT      -0.834000       15.9994           0
     10990 TIP3     805      TIP3     H1       HT       0.417000       1.00800           0
     10991 TIP3     805      TIP3     H2       HT       0.417000       1.00800           0
     10992 TIP3     806      TIP3     OH2      OT      -0.834000       15.9994           0
     10993 TIP3     806      TIP3     H1       HT       0.417000       1.00800           0
     10994 TIP3     806      TIP3     H2       HT       0.417000       1.00800           0
     10995 TIP3     807      TIP3     OH2      OT      -0.834000       15.9994           0
     10996 TIP3     807      TIP3     H1       HT       0.417000       1.00800           0
     10997 TIP3     807      TIP3     H2       HT       0.417000       1.00800           0
     10998 TIP3     808      TIP3     OH2      OT      -0.834000       15.9994           0
     10999 TIP3     808      TIP3     H1       HT       0.417000       1.00800           0
     11000 TIP3     808      TIP3     H2       HT       0.417000       1.00800           0
     11001 TIP3     809      TIP3     OH2      OT      -0.834000       15.9994           0
     11002 TIP3     809      TIP3     H1       HT       0.417000       1.00800           0
     11003 TIP3     809      TIP3     H2       HT       0.417000       1.00800           0
     11004 TIP3     810      TIP3     OH2      OT      -0.834000       15.9994           0
     11005 TIP3     810      TIP3     H1       HT       0.417000       1.00800           0
     11006 TIP3     810      TIP3     H2       HT       0.417000       1.00800           0
     11007 TIP3     811      TIP3     OH2      OT      -0.834000       15.9994           0
     11008 TIP3     811      TIP3     H1       HT       0.417000       1.00800           0
     11009 TIP3     811      TIP3     H2       HT       0.417000       1.00800           0
     11010 TIP3     812      TIP3     OH2      OT      -0.834000       15.9994           0
     11011 TIP3     812      TIP3     H1       HT       0.417000       1.00800           0
     11012 TIP3     812      TIP3     H2       HT       0.417000       1.00800           0
     11013 TIP3     813      TIP3     OH2      OT      -0.834000       15.9994           0
     11014 TIP3     813      TIP3     H1       HT       0.417000       1.00800           0
     11015 TIP3     813      TIP3     H2       HT       0.417000       1.00800           0
     11016 TIP3     814      TIP3     OH2      OT      -0.834000       15.9994           0
     11017 TIP3     814      TIP3     H1       HT       0.417000       1.00800           0
     11018 TIP3     814      TIP3     H2       HT       0.417000       1.00800           0
     11019 TIP3     815      TIP3     OH2      OT      -0.834000       15.9994           0
     11020 TIP3     815      TIP3     H1       HT       0.417000       1.00800           0
     11021 TIP3     815      TIP3     H2       HT       0.417000       1.00800           0
     11022 TIP3     816      TIP3     OH2      OT      -0.834000       15.9994           0
     11023 TIP3     816      TIP3     H1       HT       0.417000       1.00800           0
     11024 TIP3     816      TIP3     H2       HT       0.417000       1.00800           0
     11025 TIP3     817      TIP3     OH2      OT      -0.834000       15.9994           0
     11026 TIP3     817      TIP3     H1       HT       0.417000       1.00800           0
     11027 TIP3     817      TIP3     H2       HT       0.417000       1.00800           0
     11028 TIP3     818      TIP3     OH2      OT      -0.834000       15.9994           0
     11029 TIP3     818      TIP3     H1       HT       0.417000       1.00800           0
     11030 TIP3     818      TIP3     H2       HT       0.417000       1.00800           0
     11031 TIP3     819      TIP3     OH2      OT      -0.834000       15.9994           0
     11032 TIP3     819      TIP3     H1       HT       0.417000       1.00800           0
     11033 TIP3     819      TIP3     H2       HT       0.417000       1.00800           0
     11034 TIP3     820      TIP3     OH2      OT      -0.834000       15.9994           0
     11035 TIP3     820      TIP3     H1       HT       0.417000       1.00800           0
     11036 TIP3     820      TIP3     H2       HT       0.417000       1.00800           0
     11037 TIP3     821      TIP3     OH2      OT      -0.834000       15.9994           0
     11038 TIP3     821      TIP3     H1       HT       0.417000       1.00800           0
     11039 TIP3     821      TIP3     H2       HT       0.417000       1.00800           0
     11040 TIP3     822      TIP3     OH2      OT      -0.834000       15.9994           0
     11041 TIP3     822      TIP3     H1       HT       0.417000       1.00800           0
     11042 TIP3     822      TIP3     H2       HT       0.417000       1.00800           0
     11043 TIP3     823      TIP3     OH2      OT      -0.834000       15.9994           0
     11044 TIP3     823      TIP3     H1       HT       0.417000       1.00800           0
     11045 TIP3     823      TIP3     H2       HT       0.417000       1.00800           0
     11046 TIP3     824      TIP3     OH2      OT      -0.834000       15.9994           0
     11047 TIP3     824      TIP3     H1       HT       0.417000       1.00800           0
     11048 TIP3     824      TIP3     H2       HT       0.417000       1.00800           0
     11049 TIP3     825      TIP3     OH2      OT      -0.834000       15.9994           0
     11050 TIP3     825      TIP3     H1       HT       0.417000       1.00800           0
     11051 TIP3     825      TIP3     H2       HT       0.417000       1.00800           0
     11052 TIP3     826      TIP3     OH2      OT      -0.834000       15.9994           0
     11053 TIP3     826      TIP3     H1       HT       0.417000       1.00800           0
     11054 TIP3     826      TIP3     H2       HT       0.417000       1.00800           0
     11055 TIP3     827      TIP3     OH2      OT      -0.834000       15.9994           0
     11056 TIP3     827      TIP3     H1       HT       0.417000       1.00800           0
     11057 TIP3     827      TIP3     H2       HT       0.417000       1.00800           0
     11058 TIP3     828      TIP3     OH2      OT      -0.834000       15.9994           0
     11059 TIP3     828      TIP3     H1       HT       0.417000       1.00800           0
     11060 TIP3     828      TIP3     H2       HT       0.417000       1.00800           0
     11061 TIP3     829      TIP3     OH2      OT      -0.834000       15.9994           0
     11062 TIP3     829      TIP3     H1       HT       0.417000       1.00800           0
     11063 TIP3     829      TIP3     H2       HT       0.417000       1.00800           0
     11064 TIP3     830      TIP3     OH2      OT      -0.834000       15.9994           0
     11065 TIP3     830      TIP3     H1       HT       0.417000       1.00800           0
     11066 TIP3     830      TIP3     H2       HT       0.417000       1.00800           0
     11067 TIP3     831      TIP3     OH2      OT      -0.834000       15.9994           0
     11068 TIP3     831      TIP3     H1       HT       0.417000       1.00800           0
     11069 TIP3     831      TIP3     H2       HT       0.417000       1.00800           0
     11070 TIP3     832      TIP3     OH2      OT      -0.834000       15.9994           0
     11071 TIP3     832      TIP3     H1       HT       0.417000       1.00800           0
     11072 TIP3     832      TIP3     H2       HT       0.417000       1.00800           0
     11073 TIP3     833      TIP3     OH2      OT      -0.834000       15.9994           0
     11074 TIP3     833      TIP3     H1       HT       0.417000       1.00800           0
     11075 TIP3     833      TIP3     H2       HT       0.417000       1.00800           0
     11076 TIP3     834      TIP3     OH2      OT      -0.834000       15.9994           0
     11077 TIP3     834      TIP3     H1       HT       0.417000       1.00800           0
     11078 TIP3     834      TIP3     H2       HT       0.417000       1.00800           0
     11079 TIP3     835      TIP3     OH2      OT      -0.834000       15.9994           0
     11080 TIP3     835      TIP3     H1       HT       0.417000       1.00800           0
     11081 TIP3     835      TIP3     H2       HT       0.417000       1.00800           0
     11082 TIP3     836      TIP3     OH2      OT      -0.834000       15.9994           0
     11083 TIP3     836      TIP3     H1       HT       0.417000       1.00800           0
     11084 TIP3     836      TIP3     H2       HT       0.417000       1.00800           0
     11085 TIP3     837      TIP3     OH2      OT      -0.834000       15.9994           0
     11086 TIP3     837      TIP3     H1       HT       0.417000       1.00800           0
     11087 TIP3     837      TIP3     H2       HT       0.417000       1.00800           0
     11088 TIP3     838      TIP3     OH2      OT      -0.834000       15.9994           0
     11089 TIP3     838      TIP3     H1       HT       0.417000       1.00800           0
     11090 TIP3     838      TIP3     H2       HT       0.417000       1.00800           0
     11091 TIP3     839      TIP3     OH2      OT      -0.834000       15.9994           0
     11092 TIP3     839      TIP3     H1       HT       0.417000       1.00800           0
     11093 TIP3     839      TIP3     H2       HT       0.417000       1.00800           0
     11094 TIP3     840      TIP3     OH2      OT      -0.834000       15.9994           0
     11095 TIP3     840      TIP3     H1       HT       0.417000       1.00800           0
     11096 TIP3     840      TIP3     H2       HT       0.417000       1.00800           0
     11097 TIP3     841      TIP3     OH2      OT      -0.834000       15.9994           0
     11098 TIP3     841      TIP3     H1       HT       0.417000       1.00800           0
     11099 TIP3     841      TIP3     H2       HT       0.417000       1.00800           0
     11100 TIP3     842      TIP3     OH2      OT      -0.834000       15.9994           0
     11101 TIP3     842      TIP3     H1       HT       0.417000       1.00800           0
     11102 TIP3     842      TIP3     H2       HT       0.417000       1.00800           0
     11103 TIP3     843      TIP3     OH2      OT      -0.834000       15.9994           0
     11104 TIP3     843      TIP3     H1       HT       0.417000       1.00800           0
     11105 TIP3     843      TIP3     H2       HT       0.417000       1.00800           0
     11106 TIP3     844      TIP3     OH2      OT      -0.834000       15.9994           0
     11107 TIP3     844      TIP3     H1       HT       0.417000       1.00800           0
     11108 TIP3     844      TIP3     H2       HT       0.417000       1.00800           0
     11109 TIP3     845      TIP3     OH2      OT      -0.834000       15.9994           0
     11110 TIP3     845      TIP3     H1       HT       0.417000       1.00800           0
     11111 TIP3     845      TIP3     H2       HT       0.417000       1.00800           0
     11112 TIP3     846      TIP3     OH2      OT      -0.834000       15.9994           0
     11113 TIP3     846      TIP3     H1       HT       0.417000       1.00800           0
     11114 TIP3     846      TIP3     H2       HT       0.417000       1.00800           0
     11115 TIP3     847      TIP3     OH2      OT      -0.834000       15.9994           0
     11116 TIP3     847      TIP3     H1       HT       0.417000       1.00800           0
     11117 TIP3     847      TIP3     H2       HT       0.417000       1.00800           0
     11118 TIP3     848      TIP3     OH2      OT      -0.834000       15.9994           0
     11119 TIP3     848      TIP3     H1       HT       0.417000       1.00800           0
     11120 TIP3     848      TIP3     H2       HT       0.417000       1.00800           0
     11121 TIP3     849      TIP3     OH2      OT      -0.834000       15.9994           0
     11122 TIP3     849      TIP3     H1       HT       0.417000       1.00800           0
     11123 TIP3     849      TIP3     H2       HT       0.417000       1.00800           0
     11124 TIP3     850      TIP3     OH2      OT      -0.834000       15.9994           0
     11125 TIP3     850      TIP3     H1       HT       0.417000       1.00800           0
     11126 TIP3     850      TIP3     H2       HT       0.417000       1.00800           0
     11127 TIP3     851      TIP3     OH2      OT      -0.834000       15.9994           0
     11128 TIP3     851      TIP3     H1       HT       0.417000       1.00800           0
     11129 TIP3     851      TIP3     H2       HT       0.417000       1.00800           0
     11130 TIP3     852      TIP3     OH2      OT      -0.834000       15.9994           0
     11131 TIP3     852      TIP3     H1       HT       0.417000       1.00800           0
     11132 TIP3     852      TIP3     H2       HT       0.417000       1.00800           0
     11133 TIP3     853      TIP3     OH2      OT      -0.834000       15.9994           0
     11134 TIP3     853      TIP3     H1       HT       0.417000       1.00800           0
     11135 TIP3     853      TIP3     H2       HT       0.417000       1.00800           0
     11136 TIP3     854      TIP3     OH2      OT      -0.834000       15.9994           0
     11137 TIP3     854      TIP3     H1       HT       0.417000       1.00800           0
     11138 TIP3     854      TIP3     H2       HT       0.417000       1.00800           0
     11139 TIP3     855      TIP3     OH2      OT      -0.834000       15.9994           0
     11140 TIP3     855      TIP3     H1       HT       0.417000       1.00800           0
     11141 TIP3     855      TIP3     H2       HT       0.417000       1.00800           0
     11142 TIP3     856      TIP3     OH2      OT      -0.834000       15.9994           0
     11143 TIP3     856      TIP3     H1       HT       0.417000       1.00800           0
     11144 TIP3     856      TIP3     H2       HT       0.417000       1.00800           0
     11145 TIP3     857      TIP3     OH2      OT      -0.834000       15.9994           0
     11146 TIP3     857      TIP3     H1       HT       0.417000       1.00800           0
     11147 TIP3     857      TIP3     H2       HT       0.417000       1.00800           0
     11148 TIP3     858      TIP3     OH2      OT      -0.834000       15.9994           0
     11149 TIP3     858      TIP3     H1       HT       0.417000       1.00800           0
     11150 TIP3     858      TIP3     H2       HT       0.417000       1.00800           0
     11151 TIP3     859      TIP3     OH2      OT      -0.834000       15.9994           0
     11152 TIP3     859      TIP3     H1       HT       0.417000       1.00800           0
     11153 TIP3     859      TIP3     H2       HT       0.417000       1.00800           0
     11154 TIP3     860      TIP3     OH2      OT      -0.834000       15.9994           0
     11155 TIP3     860      TIP3     H1       HT       0.417000       1.00800           0
     11156 TIP3     860      TIP3     H2       HT       0.417000       1.00800           0
     11157 TIP3     861      TIP3     OH2      OT      -0.834000       15.9994           0
     11158 TIP3     861      TIP3     H1       HT       0.417000       1.00800           0
     11159 TIP3     861      TIP3     H2       HT       0.417000       1.00800           0
     11160 TIP3     862      TIP3     OH2      OT      -0.834000       15.9994           0
     11161 TIP3     862      TIP3     H1       HT       0.417000       1.00800           0
     11162 TIP3     862      TIP3     H2       HT       0.417000       1.00800           0
     11163 TIP3     863      TIP3     OH2      OT      -0.834000       15.9994           0
     11164 TIP3     863      TIP3     H1       HT       0.417000       1.00800           0
     11165 TIP3     863      TIP3     H2       HT       0.417000       1.00800           0
     11166 TIP3     864      TIP3     OH2      OT      -0.834000       15.9994           0
     11167 TIP3     864      TIP3     H1       HT       0.417000       1.00800           0
     11168 TIP3     864      TIP3     H2       HT       0.417000       1.00800           0
     11169 TIP3     865      TIP3     OH2      OT      -0.834000       15.9994           0
     11170 TIP3     865      TIP3     H1       HT       0.417000       1.00800           0
     11171 TIP3     865      TIP3     H2       HT       0.417000       1.00800           0
     11172 TIP3     866      TIP3     OH2      OT      -0.834000       15.9994           0
     11173 TIP3     866      TIP3     H1       HT       0.417000       1.00800           0
     11174 TIP3     866      TIP3     H2       HT       0.417000       1.00800           0
     11175 TIP3     867      TIP3     OH2      OT      -0.834000       15.9994           0
     11176 TIP3     867      TIP3     H1       HT       0.417000       1.00800           0
     11177 TIP3     867      TIP3     H2       HT       0.417000       1.00800           0
     11178 TIP3     868      TIP3     OH2      OT      -0.834000       15.9994           0
     11179 TIP3     868      TIP3     H1       HT       0.417000       1.00800           0
     11180 TIP3     868      TIP3     H2       HT       0.417000       1.00800           0
     11181 TIP3     869      TIP3     OH2      OT      -0.834000       15.9994           0
     11182 TIP3     869      TIP3     H1       HT       0.417000       1.00800           0
     11183 TIP3     869      TIP3     H2       HT       0.417000       1.00800           0
     11184 TIP3     870      TIP3     OH2      OT      -0.834000       15.9994           0
     11185 TIP3     870      TIP3     H1       HT       0.417000       1.00800           0
     11186 TIP3     870      TIP3     H2       HT       0.417000       1.00800           0
     11187 TIP3     871      TIP3     OH2      OT      -0.834000       15.9994           0
     11188 TIP3     871      TIP3     H1       HT       0.417000       1.00800           0
     11189 TIP3     871      TIP3     H2       HT       0.417000       1.00800           0
     11190 TIP3     872      TIP3     OH2      OT      -0.834000       15.9994           0
     11191 TIP3     872      TIP3     H1       HT       0.417000       1.00800           0
     11192 TIP3     872      TIP3     H2       HT       0.417000       1.00800           0
     11193 TIP3     873      TIP3     OH2      OT      -0.834000       15.9994           0
     11194 TIP3     873      TIP3     H1       HT       0.417000       1.00800           0
     11195 TIP3     873      TIP3     H2       HT       0.417000       1.00800           0
     11196 TIP3     874      TIP3     OH2      OT      -0.834000       15.9994           0
     11197 TIP3     874      TIP3     H1       HT       0.417000       1.00800           0
     11198 TIP3     874      TIP3     H2       HT       0.417000       1.00800           0
     11199 TIP3     875      TIP3     OH2      OT      -0.834000       15.9994           0
     11200 TIP3     875      TIP3     H1       HT       0.417000       1.00800           0
     11201 TIP3     875      TIP3     H2       HT       0.417000       1.00800           0
     11202 TIP3     876      TIP3     OH2      OT      -0.834000       15.9994           0
     11203 TIP3     876      TIP3     H1       HT       0.417000       1.00800           0
     11204 TIP3     876      TIP3     H2       HT       0.417000       1.00800           0
     11205 TIP3     877      TIP3     OH2      OT      -0.834000       15.9994           0
     11206 TIP3     877      TIP3     H1       HT       0.417000       1.00800           0
     11207 TIP3     877      TIP3     H2       HT       0.417000       1.00800           0
     11208 TIP3     878      TIP3     OH2      OT      -0.834000       15.9994           0
     11209 TIP3     878      TIP3     H1       HT       0.417000       1.00800           0
     11210 TIP3     878      TIP3     H2       HT       0.417000       1.00800           0
     11211 TIP3     879      TIP3     OH2      OT      -0.834000       15.9994           0
     11212 TIP3     879      TIP3     H1       HT       0.417000       1.00800           0
     11213 TIP3     879      TIP3     H2       HT       0.417000       1.00800           0
     11214 TIP3     880      TIP3     OH2      OT      -0.834000       15.9994           0
     11215 TIP3     880      TIP3     H1       HT       0.417000       1.00800           0
     11216 TIP3     880      TIP3     H2       HT       0.417000       1.00800           0
     11217 TIP3     881      TIP3     OH2      OT      -0.834000       15.9994           0
     11218 TIP3     881      TIP3     H1       HT       0.417000       1.00800           0
     11219 TIP3     881      TIP3     H2       HT       0.417000       1.00800           0
     11220 TIP3     882      TIP3     OH2      OT      -0.834000       15.9994           0
     11221 TIP3     882      TIP3     H1       HT       0.417000       1.00800           0
     11222 TIP3     882      TIP3     H2       HT       0.417000       1.00800           0
     11223 TIP3     883      TIP3     OH2      OT      -0.834000       15.9994           0
     11224 TIP3     883      TIP3     H1       HT       0.417000       1.00800           0
     11225 TIP3     883      TIP3     H2       HT       0.417000       1.00800           0
     11226 TIP3     884      TIP3     OH2      OT      -0.834000       15.9994           0
     11227 TIP3     884      TIP3     H1       HT       0.417000       1.00800           0
     11228 TIP3     884      TIP3     H2       HT       0.417000       1.00800           0
     11229 TIP3     885      TIP3     OH2      OT      -0.834000       15.9994           0
     11230 TIP3     885      TIP3     H1       HT       0.417000       1.00800           0
     11231 TIP3     885      TIP3     H2       HT       0.417000       1.00800           0
     11232 TIP3     886      TIP3     OH2      OT      -0.834000       15.9994           0
     11233 TIP3     886      TIP3     H1       HT       0.417000       1.00800           0
     11234 TIP3     886      TIP3     H2       HT       0.417000       1.00800           0
     11235 TIP3     887      TIP3     OH2      OT      -0.834000       15.9994           0
     11236 TIP3     887      TIP3     H1       HT       0.417000       1.00800           0
     11237 TIP3     887      TIP3     H2       HT       0.417000       1.00800           0
     11238 TIP3     888      TIP3     OH2      OT      -0.834000       15.9994           0
     11239 TIP3     888      TIP3     H1       HT       0.417000       1.00800           0
     11240 TIP3     888      TIP3     H2       HT       0.417000       1.00800           0
     11241 TIP3     889      TIP3     OH2      OT      -0.834000       15.9994           0
     11242 TIP3     889      TIP3     H1       HT       0.417000       1.00800           0
     11243 TIP3     889      TIP3     H2       HT       0.417000       1.00800           0
     11244 TIP3     890      TIP3     OH2      OT      -0.834000       15.9994           0
     11245 TIP3     890      TIP3     H1       HT       0.417000       1.00800           0
     11246 TIP3     890      TIP3     H2       HT       0.417000       1.00800           0
     11247 TIP3     891      TIP3     OH2      OT      -0.834000       15.9994           0
     11248 TIP3     891      TIP3     H1       HT       0.417000       1.00800           0
     11249 TIP3     891      TIP3     H2       HT       0.417000       1.00800           0
     11250 TIP3     892      TIP3     OH2      OT      -0.834000       15.9994           0
     11251 TIP3     892      TIP3     H1       HT       0.417000       1.00800           0
     11252 TIP3     892      TIP3     H2       HT       0.417000       1.00800           0
     11253 TIP3     893      TIP3     OH2      OT      -0.834000       15.9994           0
     11254 TIP3     893      TIP3     H1       HT       0.417000       1.00800           0
     11255 TIP3     893      TIP3     H2       HT       0.417000       1.00800           0
     11256 TIP3     894      TIP3     OH2      OT      -0.834000       15.9994           0
     11257 TIP3     894      TIP3     H1       HT       0.417000       1.00800           0
     11258 TIP3     894      TIP3     H2       HT       0.417000       1.00800           0
     11259 TIP3     895      TIP3     OH2      OT      -0.834000       15.9994           0
     11260 TIP3     895      TIP3     H1       HT       0.417000       1.00800           0
     11261 TIP3     895      TIP3     H2       HT       0.417000       1.00800           0
     11262 TIP3     896      TIP3     OH2      OT      -0.834000       15.9994           0
     11263 TIP3     896      TIP3     H1       HT       0.417000       1.00800           0
     11264 TIP3     896      TIP3     H2       HT       0.417000       1.00800           0
     11265 TIP3     897      TIP3     OH2      OT      -0.834000       15.9994           0
     11266 TIP3     897      TIP3     H1       HT       0.417000       1.00800           0
     11267 TIP3     897      TIP3     H2       HT       0.417000       1.00800           0
     11268 TIP3     898      TIP3     OH2      OT      -0.834000       15.9994           0
     11269 TIP3     898      TIP3     H1       HT       0.417000       1.00800           0
     11270 TIP3     898      TIP3     H2       HT       0.417000       1.00800           0
     11271 TIP3     899      TIP3     OH2      OT      -0.834000       15.9994           0
     11272 TIP3     899      TIP3     H1       HT       0.417000       1.00800           0
     11273 TIP3     899      TIP3     H2       HT       0.417000       1.00800           0
     11274 TIP3     900      TIP3     OH2      OT      -0.834000       15.9994           0
     11275 TIP3     900      TIP3     H1       HT       0.417000       1.00800           0
     11276 TIP3     900      TIP3     H2       HT       0.417000       1.00800           0
     11277 TIP3     901      TIP3     OH2      OT      -0.834000       15.9994           0
     11278 TIP3     901      TIP3     H1       HT       0.417000       1.00800           0
     11279 TIP3     901      TIP3     H2       HT       0.417000       1.00800           0
     11280 TIP3     902      TIP3     OH2      OT      -0.834000       15.9994           0
     11281 TIP3     902      TIP3     H1       HT       0.417000       1.00800           0
     11282 TIP3     902      TIP3     H2       HT       0.417000       1.00800           0
     11283 TIP3     903      TIP3     OH2      OT      -0.834000       15.9994           0
     11284 TIP3     903      TIP3     H1       HT       0.417000       1.00800           0
     11285 TIP3     903      TIP3     H2       HT       0.417000       1.00800           0
     11286 TIP3     904      TIP3     OH2      OT      -0.834000       15.9994           0
     11287 TIP3     904      TIP3     H1       HT       0.417000       1.00800           0
     11288 TIP3     904      TIP3     H2       HT       0.417000       1.00800           0
     11289 TIP3     905      TIP3     OH2      OT      -0.834000       15.9994           0
     11290 TIP3     905      TIP3     H1       HT       0.417000       1.00800           0
     11291 TIP3     905      TIP3     H2       HT       0.417000       1.00800           0
     11292 TIP3     906      TIP3     OH2      OT      -0.834000       15.9994           0
     11293 TIP3     906      TIP3     H1       HT       0.417000       1.00800           0
     11294 TIP3     906      TIP3     H2       HT       0.417000       1.00800           0
     11295 TIP3     907      TIP3     OH2      OT      -0.834000       15.9994           0
     11296 TIP3     907      TIP3     H1       HT       0.417000       1.00800           0
     11297 TIP3     907      TIP3     H2       HT       0.417000       1.00800           0
     11298 TIP3     908      TIP3     OH2      OT      -0.834000       15.9994           0
     11299 TIP3     908      TIP3     H1       HT       0.417000       1.00800           0
     11300 TIP3     908      TIP3     H2       HT       0.417000       1.00800           0
     11301 TIP3     909      TIP3     OH2      OT      -0.834000       15.9994           0
     11302 TIP3     909      TIP3     H1       HT       0.417000       1.00800           0
     11303 TIP3     909      TIP3     H2       HT       0.417000       1.00800           0
     11304 TIP3     910      TIP3     OH2      OT      -0.834000       15.9994           0
     11305 TIP3     910      TIP3     H1       HT       0.417000       1.00800           0
     11306 TIP3     910      TIP3     H2       HT       0.417000       1.00800           0
     11307 TIP3     911      TIP3     OH2      OT      -0.834000       15.9994           0
     11308 TIP3     911      TIP3     H1       HT       0.417000       1.00800           0
     11309 TIP3     911      TIP3     H2       HT       0.417000       1.00800           0
     11310 TIP3     912      TIP3     OH2      OT      -0.834000       15.9994           0
     11311 TIP3     912      TIP3     H1       HT       0.417000       1.00800           0
     11312 TIP3     912      TIP3     H2       HT       0.417000       1.00800           0
     11313 TIP3     913      TIP3     OH2      OT      -0.834000       15.9994           0
     11314 TIP3     913      TIP3     H1       HT       0.417000       1.00800           0
     11315 TIP3     913      TIP3     H2       HT       0.417000       1.00800           0
     11316 TIP3     914      TIP3     OH2      OT      -0.834000       15.9994           0
     11317 TIP3     914      TIP3     H1       HT       0.417000       1.00800           0
     11318 TIP3     914      TIP3     H2       HT       0.417000       1.00800           0
     11319 TIP3     915      TIP3     OH2      OT      -0.834000       15.9994           0
     11320 TIP3     915      TIP3     H1       HT       0.417000       1.00800           0
     11321 TIP3     915      TIP3     H2       HT       0.417000       1.00800           0
     11322 TIP3     916      TIP3     OH2      OT      -0.834000       15.9994           0
     11323 TIP3     916      TIP3     H1       HT       0.417000       1.00800           0
     11324 TIP3     916      TIP3     H2       HT       0.417000       1.00800           0
     11325 TIP3     917      TIP3     OH2      OT      -0.834000       15.9994           0
     11326 TIP3     917      TIP3     H1       HT       0.417000       1.00800           0
     11327 TIP3     917      TIP3     H2       HT       0.417000       1.00800           0
     11328 TIP3     918      TIP3     OH2      OT      -0.834000       15.9994           0
     11329 TIP3     918      TIP3     H1       HT       0.417000       1.00800           0
     11330 TIP3     918      TIP3     H2       HT       0.417000       1.00800           0
     11331 TIP3     919      TIP3     OH2      OT      -0.834000       15.9994           0
     11332 TIP3     919      TIP3     H1       HT       0.417000       1.00800           0
     11333 TIP3     919      TIP3     H2       HT       0.417000       1.00800           0
     11334 TIP3     920      TIP3     OH2      OT      -0.834000       15.9994           0
     11335 TIP3     920      TIP3     H1       HT       0.417000       1.00800           0
     11336 TIP3     920      TIP3     H2       HT       0.417000       1.00800           0
     11337 TIP3     921      TIP3     OH2      OT      -0.834000       15.9994           0
     11338 TIP3     921      TIP3     H1       HT       0.417000       1.00800           0
     11339 TIP3     921      TIP3     H2       HT       0.417000       1.00800           0
     11340 TIP3     922      TIP3     OH2      OT      -0.834000       15.9994           0
     11341 TIP3     922      TIP3     H1       HT       0.417000       1.00800           0
     11342 TIP3     922      TIP3     H2       HT       0.417000       1.00800           0
     11343 TIP3     923      TIP3     OH2      OT      -0.834000       15.9994           0
     11344 TIP3     923      TIP3     H1       HT       0.417000       1.00800           0
     11345 TIP3     923      TIP3     H2       HT       0.417000       1.00800           0
     11346 TIP3     924      TIP3     OH2      OT      -0.834000       15.9994           0
     11347 TIP3     924      TIP3     H1       HT       0.417000       1.00800           0
     11348 TIP3     924      TIP3     H2       HT       0.417000       1.00800           0
     11349 TIP3     925      TIP3     OH2      OT      -0.834000       15.9994           0
     11350 TIP3     925      TIP3     H1       HT       0.417000       1.00800           0
     11351 TIP3     925      TIP3     H2       HT       0.417000       1.00800           0
     11352 TIP3     926      TIP3     OH2      OT      -0.834000       15.9994           0
     11353 TIP3     926      TIP3     H1       HT       0.417000       1.00800           0
     11354 TIP3     926      TIP3     H2       HT       0.417000       1.00800           0
     11355 TIP3     927      TIP3     OH2      OT      -0.834000       15.9994           0
     11356 TIP3     927      TIP3     H1       HT       0.417000       1.00800           0
     11357 TIP3     927      TIP3     H2       HT       0.417000       1.00800           0
     11358 TIP3     928      TIP3     OH2      OT      -0.834000       15.9994           0
     11359 TIP3     928      TIP3     H1       HT       0.417000       1.00800           0
     11360 TIP3     928      TIP3     H2       HT       0.417000       1.00800           0
     11361 TIP3     929      TIP3     OH2      OT      -0.834000       15.9994           0
     11362 TIP3     929      TIP3     H1       HT       0.417000       1.00800           0
     11363 TIP3     929      TIP3     H2       HT       0.417000       1.00800           0
     11364 TIP3     930      TIP3     OH2      OT      -0.834000       15.9994           0
     11365 TIP3     930      TIP3     H1       HT       0.417000       1.00800           0
     11366 TIP3     930      TIP3     H2       HT       0.417000       1.00800           0
     11367 TIP3     931      TIP3     OH2      OT      -0.834000       15.9994           0
     11368 TIP3     931      TIP3     H1       HT       0.417000       1.00800           0
     11369 TIP3     931      TIP3     H2       HT       0.417000       1.00800           0
     11370 TIP3     932      TIP3     OH2      OT      -0.834000       15.9994           0
     11371 TIP3     932      TIP3     H1       HT       0.417000       1.00800           0
     11372 TIP3     932      TIP3     H2       HT       0.417000       1.00800           0
     11373 TIP3     933      TIP3     OH2      OT      -0.834000       15.9994           0
     11374 TIP3     933      TIP3     H1       HT       0.417000       1.00800           0
     11375 TIP3     933      TIP3     H2       HT       0.417000       1.00800           0
     11376 TIP3     934      TIP3     OH2      OT      -0.834000       15.9994           0
     11377 TIP3     934      TIP3     H1       HT       0.417000       1.00800           0
     11378 TIP3     934      TIP3     H2       HT       0.417000       1.00800           0
     11379 TIP3     935      TIP3     OH2      OT      -0.834000       15.9994           0
     11380 TIP3     935      TIP3     H1       HT       0.417000       1.00800           0
     11381 TIP3     935      TIP3     H2       HT       0.417000       1.00800           0
     11382 TIP3     936      TIP3     OH2      OT      -0.834000       15.9994           0
     11383 TIP3     936      TIP3     H1       HT       0.417000       1.00800           0
     11384 TIP3     936      TIP3     H2       HT       0.417000       1.00800           0
     11385 TIP3     937      TIP3     OH2      OT      -0.834000       15.9994           0
     11386 TIP3     937      TIP3     H1       HT       0.417000       1.00800           0
     11387 TIP3     937      TIP3     H2       HT       0.417000       1.00800           0
     11388 TIP3     938      TIP3     OH2      OT      -0.834000       15.9994           0
     11389 TIP3     938      TIP3     H1       HT       0.417000       1.00800           0
     11390 TIP3     938      TIP3     H2       HT       0.417000       1.00800           0
     11391 TIP3     939      TIP3     OH2      OT      -0.834000       15.9994           0
     11392 TIP3     939      TIP3     H1       HT       0.417000       1.00800           0
     11393 TIP3     939      TIP3     H2       HT       0.417000       1.00800           0
     11394 TIP3     940      TIP3     OH2      OT      -0.834000       15.9994           0
     11395 TIP3     940      TIP3     H1       HT       0.417000       1.00800           0
     11396 TIP3     940      TIP3     H2       HT       0.417000       1.00800           0
     11397 TIP3     941      TIP3     OH2      OT      -0.834000       15.9994           0
     11398 TIP3     941      TIP3     H1       HT       0.417000       1.00800           0
     11399 TIP3     941      TIP3     H2       HT       0.417000       1.00800           0
     11400 TIP3     942      TIP3     OH2      OT      -0.834000       15.9994           0
     11401 TIP3     942      TIP3     H1       HT       0.417000       1.00800           0
     11402 TIP3     942      TIP3     H2       HT       0.417000       1.00800           0
     11403 TIP3     943      TIP3     OH2      OT      -0.834000       15.9994           0
     11404 TIP3     943      TIP3     H1       HT       0.417000       1.00800           0
     11405 TIP3     943      TIP3     H2       HT       0.417000       1.00800           0
     11406 TIP3     944      TIP3     OH2      OT      -0.834000       15.9994           0
     11407 TIP3     944      TIP3     H1       HT       0.417000       1.00800           0
     11408 TIP3     944      TIP3     H2       HT       0.417000       1.00800           0
     11409 TIP3     945      TIP3     OH2      OT      -0.834000       15.9994           0
     11410 TIP3     945      TIP3     H1       HT       0.417000       1.00800           0
     11411 TIP3     945      TIP3     H2       HT       0.417000       1.00800           0
     11412 TIP3     946      TIP3     OH2      OT      -0.834000       15.9994           0
     11413 TIP3     946      TIP3     H1       HT       0.417000       1.00800           0
     11414 TIP3     946      TIP3     H2       HT       0.417000       1.00800           0
     11415 TIP3     947      TIP3     OH2      OT      -0.834000       15.9994           0
     11416 TIP3     947      TIP3     H1       HT       0.417000       1.00800           0
     11417 TIP3     947      TIP3     H2       HT       0.417000       1.00800           0
     11418 TIP3     948      TIP3     OH2      OT      -0.834000       15.9994           0
     11419 TIP3     948      TIP3     H1       HT       0.417000       1.00800           0
     11420 TIP3     948      TIP3     H2       HT       0.417000       1.00800           0
     11421 TIP3     949      TIP3     OH2      OT      -0.834000       15.9994           0
     11422 TIP3     949      TIP3     H1       HT       0.417000       1.00800           0
     11423 TIP3     949      TIP3     H2       HT       0.417000       1.00800           0
     11424 TIP3     950      TIP3     OH2      OT      -0.834000       15.9994           0
     11425 TIP3     950      TIP3     H1       HT       0.417000       1.00800           0
     11426 TIP3     950      TIP3     H2       HT       0.417000       1.00800           0
     11427 TIP3     951      TIP3     OH2      OT      -0.834000       15.9994           0
     11428 TIP3     951      TIP3     H1       HT       0.417000       1.00800           0
     11429 TIP3     951      TIP3     H2       HT       0.417000       1.00800           0
     11430 TIP3     952      TIP3     OH2      OT      -0.834000       15.9994           0
     11431 TIP3     952      TIP3     H1       HT       0.417000       1.00800           0
     11432 TIP3     952      TIP3     H2       HT       0.417000       1.00800           0
     11433 TIP3     953      TIP3     OH2      OT      -0.834000       15.9994           0
     11434 TIP3     953      TIP3     H1       HT       0.417000       1.00800           0
     11435 TIP3     953      TIP3     H2       HT       0.417000       1.00800           0
     11436 TIP3     954      TIP3     OH2      OT      -0.834000       15.9994           0
     11437 TIP3     954      TIP3     H1       HT       0.417000       1.00800           0
     11438 TIP3     954      TIP3     H2       HT       0.417000       1.00800           0
     11439 TIP3     955      TIP3     OH2      OT      -0.834000       15.9994           0
     11440 TIP3     955      TIP3     H1       HT       0.417000       1.00800           0
     11441 TIP3     955      TIP3     H2       HT       0.417000       1.00800           0
     11442 TIP3     956      TIP3     OH2      OT      -0.834000       15.9994           0
     11443 TIP3     956      TIP3     H1       HT       0.417000       1.00800           0
     11444 TIP3     956      TIP3     H2       HT       0.417000       1.00800           0
     11445 TIP3     957      TIP3     OH2      OT      -0.834000       15.9994           0
     11446 TIP3     957      TIP3     H1       HT       0.417000       1.00800           0
     11447 TIP3     957      TIP3     H2       HT       0.417000       1.00800           0
     11448 TIP3     958      TIP3     OH2      OT      -0.834000       15.9994           0
     11449 TIP3     958      TIP3     H1       HT       0.417000       1.00800           0
     11450 TIP3     958      TIP3     H2       HT       0.417000       1.00800           0
     11451 TIP3     959      TIP3     OH2      OT      -0.834000       15.9994           0
     11452 TIP3     959      TIP3     H1       HT       0.417000       1.00800           0
     11453 TIP3     959      TIP3     H2       HT       0.417000       1.00800           0
     11454 TIP3     960      TIP3     OH2      OT      -0.834000       15.9994           0
     11455 TIP3     960      TIP3     H1       HT       0.417000       1.00800           0
     11456 TIP3     960      TIP3     H2       HT       0.417000       1.00800           0
     11457 TIP3     961      TIP3     OH2      OT      -0.834000       15.9994           0
     11458 TIP3     961      TIP3     H1       HT       0.417000       1.00800           0
     11459 TIP3     961      TIP3     H2       HT       0.417000       1.00800           0
     11460 TIP3     962      TIP3     OH2      OT      -0.834000       15.9994           0
     11461 TIP3     962      TIP3     H1       HT       0.417000       1.00800           0
     11462 TIP3     962      TIP3     H2       HT       0.417000       1.00800           0
     11463 TIP3     963      TIP3     OH2      OT      -0.834000       15.9994           0
     11464 TIP3     963      TIP3     H1       HT       0.417000       1.00800           0
     11465 TIP3     963      TIP3     H2       HT       0.417000       1.00800           0
     11466 TIP3     964      TIP3     OH2      OT      -0.834000       15.9994           0
     11467 TIP3     964      TIP3     H1       HT       0.417000       1.00800           0
     11468 TIP3     964      TIP3     H2       HT       0.417000       1.00800           0
     11469 TIP3     965      TIP3     OH2      OT      -0.834000       15.9994           0
     11470 TIP3     965      TIP3     H1       HT       0.417000       1.00800           0
     11471 TIP3     965      TIP3     H2       HT       0.417000       1.00800           0
     11472 TIP3     966      TIP3     OH2      OT      -0.834000       15.9994           0
     11473 TIP3     966      TIP3     H1       HT       0.417000       1.00800           0
     11474 TIP3     966      TIP3     H2       HT       0.417000       1.00800           0
     11475 TIP3     967      TIP3     OH2      OT      -0.834000       15.9994           0
     11476 TIP3     967      TIP3     H1       HT       0.417000       1.00800           0
     11477 TIP3     967      TIP3     H2       HT       0.417000       1.00800           0
     11478 TIP3     968      TIP3     OH2      OT      -0.834000       15.9994           0
     11479 TIP3     968      TIP3     H1       HT       0.417000       1.00800           0
     11480 TIP3     968      TIP3     H2       HT       0.417000       1.00800           0
     11481 TIP3     969      TIP3     OH2      OT      -0.834000       15.9994           0
     11482 TIP3     969      TIP3     H1       HT       0.417000       1.00800           0
     11483 TIP3     969      TIP3     H2       HT       0.417000       1.00800           0
     11484 TIP3     970      TIP3     OH2      OT      -0.834000       15.9994           0
     11485 TIP3     970      TIP3     H1       HT       0.417000       1.00800           0
     11486 TIP3     970      TIP3     H2       HT       0.417000       1.00800           0
     11487 TIP3     971      TIP3     OH2      OT      -0.834000       15.9994           0
     11488 TIP3     971      TIP3     H1       HT       0.417000       1.00800           0
     11489 TIP3     971      TIP3     H2       HT       0.417000       1.00800           0
     11490 TIP3     972      TIP3     OH2      OT      -0.834000       15.9994           0
     11491 TIP3     972      TIP3     H1       HT       0.417000       1.00800           0
     11492 TIP3     972      TIP3     H2       HT       0.417000       1.00800           0
     11493 TIP3     973      TIP3     OH2      OT      -0.834000       15.9994           0
     11494 TIP3     973      TIP3     H1       HT       0.417000       1.00800           0
     11495 TIP3     973      TIP3     H2       HT       0.417000       1.00800           0
     11496 TIP3     974      TIP3     OH2      OT      -0.834000       15.9994           0
     11497 TIP3     974      TIP3     H1       HT       0.417000       1.00800           0
     11498 TIP3     974      TIP3     H2       HT       0.417000       1.00800           0
     11499 TIP3     975      TIP3     OH2      OT      -0.834000       15.9994           0
     11500 TIP3     975      TIP3     H1       HT       0.417000       1.00800           0
     11501 TIP3     975      TIP3     H2       HT       0.417000       1.00800           0
     11502 TIP3     976      TIP3     OH2      OT      -0.834000       15.9994           0
     11503 TIP3     976      TIP3     H1       HT       0.417000       1.00800           0
     11504 TIP3     976      TIP3     H2       HT       0.417000       1.00800           0
     11505 TIP3     977      TIP3     OH2      OT      -0.834000       15.9994           0
     11506 TIP3     977      TIP3     H1       HT       0.417000       1.00800           0
     11507 TIP3     977      TIP3     H2       HT       0.417000       1.00800           0
     11508 TIP3     978      TIP3     OH2      OT      -0.834000       15.9994           0
     11509 TIP3     978      TIP3     H1       HT       0.417000       1.00800           0
     11510 TIP3     978      TIP3     H2       HT       0.417000       1.00800           0
     11511 TIP3     979      TIP3     OH2      OT      -0.834000       15.9994           0
     11512 TIP3     979      TIP3     H1       HT       0.417000       1.00800           0
     11513 TIP3     979      TIP3     H2       HT       0.417000       1.00800           0
     11514 TIP3     980      TIP3     OH2      OT      -0.834000       15.9994           0
     11515 TIP3     980      TIP3     H1       HT       0.417000       1.00800           0
     11516 TIP3     980      TIP3     H2       HT       0.417000       1.00800           0
     11517 TIP3     981      TIP3     OH2      OT      -0.834000       15.9994           0
     11518 TIP3     981      TIP3     H1       HT       0.417000       1.00800           0
     11519 TIP3     981      TIP3     H2       HT       0.417000       1.00800           0
     11520 TIP3     982      TIP3     OH2      OT      -0.834000       15.9994           0
     11521 TIP3     982      TIP3     H1       HT       0.417000       1.00800           0
     11522 TIP3     982      TIP3     H2       HT       0.417000       1.00800           0
     11523 TIP3     983      TIP3     OH2      OT      -0.834000       15.9994           0
     11524 TIP3     983      TIP3     H1       HT       0.417000       1.00800           0
     11525 TIP3     983      TIP3     H2       HT       0.417000       1.00800           0
     11526 TIP3     984      TIP3     OH2      OT      -0.834000       15.9994           0
     11527 TIP3     984      TIP3     H1       HT       0.417000       1.00800           0
     11528 TIP3     984      TIP3     H2       HT       0.417000       1.00800           0
     11529 TIP3     985      TIP3     OH2      OT      -0.834000       15.9994           0
     11530 TIP3     985      TIP3     H1       HT       0.417000       1.00800           0
     11531 TIP3     985      TIP3     H2       HT       0.417000       1.00800           0
     11532 TIP3     986      TIP3     OH2      OT      -0.834000       15.9994           0
     11533 TIP3     986      TIP3     H1       HT       0.417000       1.00800           0
     11534 TIP3     986      TIP3     H2       HT       0.417000       1.00800           0
     11535 TIP3     987      TIP3     OH2      OT      -0.834000       15.9994           0
     11536 TIP3     987      TIP3     H1       HT       0.417000       1.00800           0
     11537 TIP3     987      TIP3     H2       HT       0.417000       1.00800           0
     11538 TIP3     988      TIP3     OH2      OT      -0.834000       15.9994           0
     11539 TIP3     988      TIP3     H1       HT       0.417000       1.00800           0
     11540 TIP3     988      TIP3     H2       HT       0.417000       1.00800           0
     11541 TIP3     989      TIP3     OH2      OT      -0.834000       15.9994           0
     11542 TIP3     989      TIP3     H1       HT       0.417000       1.00800           0
     11543 TIP3     989      TIP3     H2       HT       0.417000       1.00800           0
     11544 TIP3     990      TIP3     OH2      OT      -0.834000       15.9994           0
     11545 TIP3     990      TIP3     H1       HT       0.417000       1.00800           0
     11546 TIP3     990      TIP3     H2       HT       0.417000       1.00800           0
     11547 TIP3     991      TIP3     OH2      OT      -0.834000       15.9994           0
     11548 TIP3     991      TIP3     H1       HT       0.417000       1.00800           0
     11549 TIP3     991      TIP3     H2       HT       0.417000       1.00800           0
     11550 TIP3     992      TIP3     OH2      OT      -0.834000       15.9994           0
     11551 TIP3     992      TIP3     H1       HT       0.417000       1.00800           0
     11552 TIP3     992      TIP3     H2       HT       0.417000       1.00800           0
     11553 TIP3     993      TIP3     OH2      OT      -0.834000       15.9994           0
     11554 TIP3     993      TIP3     H1       HT       0.417000       1.00800           0
     11555 TIP3     993      TIP3     H2       HT       0.417000       1.00800           0
     11556 TIP3     994      TIP3     OH2      OT      -0.834000       15.9994           0
     11557 TIP3     994      TIP3     H1       HT       0.417000       1.00800           0
     11558 TIP3     994      TIP3     H2       HT       0.417000       1.00800           0
     11559 TIP3     995      TIP3     OH2      OT      -0.834000       15.9994           0
     11560 TIP3     995      TIP3     H1       HT       0.417000       1.00800           0
     11561 TIP3     995      TIP3     H2       HT       0.417000       1.00800           0
     11562 TIP3     996      TIP3     OH2      OT      -0.834000       15.9994           0
     11563 TIP3     996      TIP3     H1       HT       0.417000       1.00800           0
     11564 TIP3     996      TIP3     H2       HT       0.417000       1.00800           0
     11565 TIP3     997      TIP3     OH2      OT      -0.834000       15.9994           0
     11566 TIP3     997      TIP3     H1       HT       0.417000       1.00800           0
     11567 TIP3     997      TIP3     H2       HT       0.417000       1.00800           0
     11568 TIP3     998      TIP3     OH2      OT      -0.834000       15.9994           0
     11569 TIP3     998      TIP3     H1       HT       0.417000       1.00800           0
     11570 TIP3     998      TIP3     H2       HT       0.417000       1.00800           0
     11571 TIP3     999      TIP3     OH2      OT      -0.834000       15.9994           0
     11572 TIP3     999      TIP3     H1       HT       0.417000       1.00800           0
     11573 TIP3     999      TIP3     H2       HT       0.417000       1.00800           0
     11574 TIP3     1000     TIP3     OH2      OT      -0.834000       15.9994           0
     11575 TIP3     1000     TIP3     H1       HT       0.417000       1.00800           0
     11576 TIP3     1000     TIP3     H2       HT       0.417000       1.00800           0
     11577 TIP3     1001     TIP3     OH2      OT      -0.834000       15.9994           0
     11578 TIP3     1001     TIP3     H1       HT       0.417000       1.00800           0
     11579 TIP3     1001     TIP3     H2       HT       0.417000       1.00800           0
     11580 TIP3     1002     TIP3     OH2      OT      -0.834000       15.9994           0
     11581 TIP3     1002     TIP3     H1       HT       0.417000       1.00800           0
     11582 TIP3     1002     TIP3     H2       HT       0.417000       1.00800           0
     11583 TIP3     1003     TIP3     OH2      OT      -0.834000       15.9994           0
     11584 TIP3     1003     TIP3     H1       HT       0.417000       1.00800           0
     11585 TIP3     1003     TIP3     H2       HT       0.417000       1.00800           0
     11586 TIP3     1004     TIP3     OH2      OT      -0.834000       15.9994           0
     11587 TIP3     1004     TIP3     H1       HT       0.417000       1.00800           0
     11588 TIP3     1004     TIP3     H2       HT       0.417000       1.00800           0
     11589 TIP3     1005     TIP3     OH2      OT      -0.834000       15.9994           0
     11590 TIP3     1005     TIP3     H1       HT       0.417000       1.00800           0
     11591 TIP3     1005     TIP3     H2       HT       0.417000       1.00800           0
     11592 TIP3     1006     TIP3     OH2      OT      -0.834000       15.9994           0
     11593 TIP3     1006     TIP3     H1       HT       0.417000       1.00800           0
     11594 TIP3     1006     TIP3     H2       HT       0.417000       1.00800           0
     11595 TIP3     1007     TIP3     OH2      OT      -0.834000       15.9994           0
     11596 TIP3     1007     TIP3     H1       HT       0.417000       1.00800           0
     11597 TIP3     1007     TIP3     H2       HT       0.417000       1.00800           0
     11598 TIP3     1008     TIP3     OH2      OT      -0.834000       15.9994           0
     11599 TIP3     1008     TIP3     H1       HT       0.417000       1.00800           0
     11600 TIP3     1008     TIP3     H2       HT       0.417000       1.00800           0
     11601 TIP3     1009     TIP3     OH2      OT      -0.834000       15.9994           0
     11602 TIP3     1009     TIP3     H1       HT       0.417000       1.00800           0
     11603 TIP3     1009     TIP3     H2       HT       0.417000       1.00800           0
     11604 TIP3     1010     TIP3     OH2      OT      -0.834000       15.9994           0
     11605 TIP3     1010     TIP3     H1       HT       0.417000       1.00800           0
     11606 TIP3     1010     TIP3     H2       HT       0.417000       1.00800           0
     11607 TIP3     1011     TIP3     OH2      OT      -0.834000       15.9994           0
     11608 TIP3     1011     TIP3     H1       HT       0.417000       1.00800           0
     11609 TIP3     1011     TIP3     H2       HT       0.417000       1.00800           0
     11610 TIP3     1012     TIP3     OH2      OT      -0.834000       15.9994           0
     11611 TIP3     1012     TIP3     H1       HT       0.417000       1.00800           0
     11612 TIP3     1012     TIP3     H2       HT       0.417000       1.00800           0
     11613 TIP3     1013     TIP3     OH2      OT      -0.834000       15.9994           0
     11614 TIP3     1013     TIP3     H1       HT       0.417000       1.00800           0
     11615 TIP3     1013     TIP3     H2       HT       0.417000       1.00800           0
     11616 TIP3     1014     TIP3     OH2      OT      -0.834000       15.9994           0
     11617 TIP3     1014     TIP3     H1       HT       0.417000       1.00800           0
     11618 TIP3     1014     TIP3     H2       HT       0.417000       1.00800           0
     11619 TIP3     1015     TIP3     OH2      OT      -0.834000       15.9994           0
     11620 TIP3     1015     TIP3     H1       HT       0.417000       1.00800           0
     11621 TIP3     1015     TIP3     H2       HT       0.417000       1.00800           0
     11622 TIP3     1016     TIP3     OH2      OT      -0.834000       15.9994           0
     11623 TIP3     1016     TIP3     H1       HT       0.417000       1.00800           0
     11624 TIP3     1016     TIP3     H2       HT       0.417000       1.00800           0
     11625 TIP3     1017     TIP3     OH2      OT      -0.834000       15.9994           0
     11626 TIP3     1017     TIP3     H1       HT       0.417000       1.00800           0
     11627 TIP3     1017     TIP3     H2       HT       0.417000       1.00800           0
     11628 TIP3     1018     TIP3     OH2      OT      -0.834000       15.9994           0
     11629 TIP3     1018     TIP3     H1       HT       0.417000       1.00800           0
     11630 TIP3     1018     TIP3     H2       HT       0.417000       1.00800           0
     11631 TIP3     1019     TIP3     OH2      OT      -0.834000       15.9994           0
     11632 TIP3     1019     TIP3     H1       HT       0.417000       1.00800           0
     11633 TIP3     1019     TIP3     H2       HT       0.417000       1.00800           0
     11634 TIP3     1020     TIP3     OH2      OT      -0.834000       15.9994           0
     11635 TIP3     1020     TIP3     H1       HT       0.417000       1.00800           0
     11636 TIP3     1020     TIP3     H2       HT       0.417000       1.00800           0
     11637 TIP3     1021     TIP3     OH2      OT      -0.834000       15.9994           0
     11638 TIP3     1021     TIP3     H1       HT       0.417000       1.00800           0
     11639 TIP3     1021     TIP3     H2       HT       0.417000       1.00800           0
     11640 TIP3     1022     TIP3     OH2      OT      -0.834000       15.9994           0
     11641 TIP3     1022     TIP3     H1       HT       0.417000       1.00800           0
     11642 TIP3     1022     TIP3     H2       HT       0.417000       1.00800           0
     11643 TIP3     1023     TIP3     OH2      OT      -0.834000       15.9994           0
     11644 TIP3     1023     TIP3     H1       HT       0.417000       1.00800           0
     11645 TIP3     1023     TIP3     H2       HT       0.417000       1.00800           0
     11646 TIP3     1024     TIP3     OH2      OT      -0.834000       15.9994           0
     11647 TIP3     1024     TIP3     H1       HT       0.417000       1.00800           0
     11648 TIP3     1024     TIP3     H2       HT       0.417000       1.00800           0
     11649 TIP3     1025     TIP3     OH2      OT      -0.834000       15.9994           0
     11650 TIP3     1025     TIP3     H1       HT       0.417000       1.00800           0
     11651 TIP3     1025     TIP3     H2       HT       0.417000       1.00800           0
     11652 TIP3     1026     TIP3     OH2      OT      -0.834000       15.9994           0
     11653 TIP3     1026     TIP3     H1       HT       0.417000       1.00800           0
     11654 TIP3     1026     TIP3     H2       HT       0.417000       1.00800           0
     11655 TIP3     1027     TIP3     OH2      OT      -0.834000       15.9994           0
     11656 TIP3     1027     TIP3     H1       HT       0.417000       1.00800           0
     11657 TIP3     1027     TIP3     H2       HT       0.417000       1.00800           0
     11658 TIP3     1028     TIP3     OH2      OT      -0.834000       15.9994           0
     11659 TIP3     1028     TIP3     H1       HT       0.417000       1.00800           0
     11660 TIP3     1028     TIP3     H2       HT       0.417000       1.00800           0
     11661 TIP3     1029     TIP3     OH2      OT      -0.834000       15.9994           0
     11662 TIP3     1029     TIP3     H1       HT       0.417000       1.00800           0
     11663 TIP3     1029     TIP3     H2       HT       0.417000       1.00800           0
     11664 TIP3     1030     TIP3     OH2      OT      -0.834000       15.9994           0
     11665 TIP3     1030     TIP3     H1       HT       0.417000       1.00800           0
     11666 TIP3     1030     TIP3     H2       HT       0.417000       1.00800           0
     11667 TIP3     1031     TIP3     OH2      OT      -0.834000       15.9994           0
     11668 TIP3     1031     TIP3     H1       HT       0.417000       1.00800           0
     11669 TIP3     1031     TIP3     H2       HT       0.417000       1.00800           0
     11670 TIP3     1032     TIP3     OH2      OT      -0.834000       15.9994           0
     11671 TIP3     1032     TIP3     H1       HT       0.417000       1.00800           0
     11672 TIP3     1032     TIP3     H2       HT       0.417000       1.00800           0
     11673 TIP3     1033     TIP3     OH2      OT      -0.834000       15.9994           0
     11674 TIP3     1033     TIP3     H1       HT       0.417000       1.00800           0
     11675 TIP3     1033     TIP3     H2       HT       0.417000       1.00800           0
     11676 TIP3     1034     TIP3     OH2      OT      -0.834000       15.9994           0
     11677 TIP3     1034     TIP3     H1       HT       0.417000       1.00800           0
     11678 TIP3     1034     TIP3     H2       HT       0.417000       1.00800           0
     11679 TIP3     1035     TIP3     OH2      OT      -0.834000       15.9994           0
     11680 TIP3     1035     TIP3     H1       HT       0.417000       1.00800           0
     11681 TIP3     1035     TIP3     H2       HT       0.417000       1.00800           0
     11682 TIP3     1036     TIP3     OH2      OT      -0.834000       15.9994           0
     11683 TIP3     1036     TIP3     H1       HT       0.417000       1.00800           0
     11684 TIP3     1036     TIP3     H2       HT       0.417000       1.00800           0
     11685 TIP3     1037     TIP3     OH2      OT      -0.834000       15.9994           0
     11686 TIP3     1037     TIP3     H1       HT       0.417000       1.00800           0
     11687 TIP3     1037     TIP3     H2       HT       0.417000       1.00800           0
     11688 TIP3     1038     TIP3     OH2      OT      -0.834000       15.9994           0
     11689 TIP3     1038     TIP3     H1       HT       0.417000       1.00800           0
     11690 TIP3     1038     TIP3     H2       HT       0.417000       1.00800           0
     11691 TIP3     1039     TIP3     OH2      OT      -0.834000       15.9994           0
     11692 TIP3     1039     TIP3     H1       HT       0.417000       1.00800           0
     11693 TIP3     1039     TIP3     H2       HT       0.417000       1.00800           0
     11694 TIP3     1040     TIP3     OH2      OT      -0.834000       15.9994           0
     11695 TIP3     1040     TIP3     H1       HT       0.417000       1.00800           0
     11696 TIP3     1040     TIP3     H2       HT       0.417000       1.00800           0
     11697 TIP3     1041     TIP3     OH2      OT      -0.834000       15.9994           0
     11698 TIP3     1041     TIP3     H1       HT       0.417000       1.00800           0
     11699 TIP3     1041     TIP3     H2       HT       0.417000       1.00800           0
     11700 TIP3     1042     TIP3     OH2      OT      -0.834000       15.9994           0
     11701 TIP3     1042     TIP3     H1       HT       0.417000       1.00800           0
     11702 TIP3     1042     TIP3     H2       HT       0.417000       1.00800           0
     11703 TIP3     1043     TIP3     OH2      OT      -0.834000       15.9994           0
     11704 TIP3     1043     TIP3     H1       HT       0.417000       1.00800           0
     11705 TIP3     1043     TIP3     H2       HT       0.417000       1.00800           0
     11706 TIP3     1044     TIP3     OH2      OT      -0.834000       15.9994           0
     11707 TIP3     1044     TIP3     H1       HT       0.417000       1.00800           0
     11708 TIP3     1044     TIP3     H2       HT       0.417000       1.00800           0
     11709 TIP3     1045     TIP3     OH2      OT      -0.834000       15.9994           0
     11710 TIP3     1045     TIP3     H1       HT       0.417000       1.00800           0
     11711 TIP3     1045     TIP3     H2       HT       0.417000       1.00800           0
     11712 TIP3     1046     TIP3     OH2      OT      -0.834000       15.9994           0
     11713 TIP3     1046     TIP3     H1       HT       0.417000       1.00800           0
     11714 TIP3     1046     TIP3     H2       HT       0.417000       1.00800           0
     11715 TIP3     1047     TIP3     OH2      OT      -0.834000       15.9994           0
     11716 TIP3     1047     TIP3     H1       HT       0.417000       1.00800           0
     11717 TIP3     1047     TIP3     H2       HT       0.417000       1.00800           0
     11718 TIP3     1048     TIP3     OH2      OT      -0.834000       15.9994           0
     11719 TIP3     1048     TIP3     H1       HT       0.417000       1.00800           0
     11720 TIP3     1048     TIP3     H2       HT       0.417000       1.00800           0
     11721 TIP3     1049     TIP3     OH2      OT      -0.834000       15.9994           0
     11722 TIP3     1049     TIP3     H1       HT       0.417000       1.00800           0
     11723 TIP3     1049     TIP3     H2       HT       0.417000       1.00800           0
     11724 TIP3     1050     TIP3     OH2      OT      -0.834000       15.9994           0
     11725 TIP3     1050     TIP3     H1       HT       0.417000       1.00800           0
     11726 TIP3     1050     TIP3     H2       HT       0.417000       1.00800           0
     11727 TIP3     1051     TIP3     OH2      OT      -0.834000       15.9994           0
     11728 TIP3     1051     TIP3     H1       HT       0.417000       1.00800           0
     11729 TIP3     1051     TIP3     H2       HT       0.417000       1.00800           0
     11730 TIP3     1052     TIP3     OH2      OT      -0.834000       15.9994           0
     11731 TIP3     1052     TIP3     H1       HT       0.417000       1.00800           0
     11732 TIP3     1052     TIP3     H2       HT       0.417000       1.00800           0
     11733 TIP3     1053     TIP3     OH2      OT      -0.834000       15.9994           0
     11734 TIP3     1053     TIP3     H1       HT       0.417000       1.00800           0
     11735 TIP3     1053     TIP3     H2       HT       0.417000       1.00800           0
     11736 TIP3     1054     TIP3     OH2      OT      -0.834000       15.9994           0
     11737 TIP3     1054     TIP3     H1       HT       0.417000       1.00800           0
     11738 TIP3     1054     TIP3     H2       HT       0.417000       1.00800           0
     11739 TIP3     1055     TIP3     OH2      OT      -0.834000       15.9994           0
     11740 TIP3     1055     TIP3     H1       HT       0.417000       1.00800           0
     11741 TIP3     1055     TIP3     H2       HT       0.417000       1.00800           0
     11742 TIP3     1056     TIP3     OH2      OT      -0.834000       15.9994           0
     11743 TIP3     1056     TIP3     H1       HT       0.417000       1.00800           0
     11744 TIP3     1056     TIP3     H2       HT       0.417000       1.00800           0
     11745 TIP3     1057     TIP3     OH2      OT      -0.834000       15.9994           0
     11746 TIP3     1057     TIP3     H1       HT       0.417000       1.00800           0
     11747 TIP3     1057     TIP3     H2       HT       0.417000       1.00800           0
     11748 TIP3     1058     TIP3     OH2      OT      -0.834000       15.9994           0
     11749 TIP3     1058     TIP3     H1       HT       0.417000       1.00800           0
     11750 TIP3     1058     TIP3     H2       HT       0.417000       1.00800           0
     11751 TIP3     1059     TIP3     OH2      OT      -0.834000       15.9994           0
     11752 TIP3     1059     TIP3     H1       HT       0.417000       1.00800           0
     11753 TIP3     1059     TIP3     H2       HT       0.417000       1.00800           0
     11754 TIP3     1060     TIP3     OH2      OT      -0.834000       15.9994           0
     11755 TIP3     1060     TIP3     H1       HT       0.417000       1.00800           0
     11756 TIP3     1060     TIP3     H2       HT       0.417000       1.00800           0
     11757 TIP3     1061     TIP3     OH2      OT      -0.834000       15.9994           0
     11758 TIP3     1061     TIP3     H1       HT       0.417000       1.00800           0
     11759 TIP3     1061     TIP3     H2       HT       0.417000       1.00800           0
     11760 TIP3     1062     TIP3     OH2      OT      -0.834000       15.9994           0
     11761 TIP3     1062     TIP3     H1       HT       0.417000       1.00800           0
     11762 TIP3     1062     TIP3     H2       HT       0.417000       1.00800           0
     11763 TIP3     1063     TIP3     OH2      OT      -0.834000       15.9994           0
     11764 TIP3     1063     TIP3     H1       HT       0.417000       1.00800           0
     11765 TIP3     1063     TIP3     H2       HT       0.417000       1.00800           0
     11766 TIP3     1064     TIP3     OH2      OT      -0.834000       15.9994           0
     11767 TIP3     1064     TIP3     H1       HT       0.417000       1.00800           0
     11768 TIP3     1064     TIP3     H2       HT       0.417000       1.00800           0
     11769 TIP3     1065     TIP3     OH2      OT      -0.834000       15.9994           0
     11770 TIP3     1065     TIP3     H1       HT       0.417000       1.00800           0
     11771 TIP3     1065     TIP3     H2       HT       0.417000       1.00800           0
     11772 TIP3     1066     TIP3     OH2      OT      -0.834000       15.9994           0
     11773 TIP3     1066     TIP3     H1       HT       0.417000       1.00800           0
     11774 TIP3     1066     TIP3     H2       HT       0.417000       1.00800           0
     11775 TIP3     1067     TIP3     OH2      OT      -0.834000       15.9994           0
     11776 TIP3     1067     TIP3     H1       HT       0.417000       1.00800           0
     11777 TIP3     1067     TIP3     H2       HT       0.417000       1.00800           0
     11778 TIP3     1068     TIP3     OH2      OT      -0.834000       15.9994           0
     11779 TIP3     1068     TIP3     H1       HT       0.417000       1.00800           0
     11780 TIP3     1068     TIP3     H2       HT       0.417000       1.00800           0
     11781 TIP3     1069     TIP3     OH2      OT      -0.834000       15.9994           0
     11782 TIP3     1069     TIP3     H1       HT       0.417000       1.00800           0
     11783 TIP3     1069     TIP3     H2       HT       0.417000       1.00800           0
     11784 TIP3     1070     TIP3     OH2      OT      -0.834000       15.9994           0
     11785 TIP3     1070     TIP3     H1       HT       0.417000       1.00800           0
     11786 TIP3     1070     TIP3     H2       HT       0.417000       1.00800           0
     11787 TIP3     1071     TIP3     OH2      OT      -0.834000       15.9994           0
     11788 TIP3     1071     TIP3     H1       HT       0.417000       1.00800           0
     11789 TIP3     1071     TIP3     H2       HT       0.417000       1.00800           0
     11790 TIP3     1072     TIP3     OH2      OT      -0.834000       15.9994           0
     11791 TIP3     1072     TIP3     H1       HT       0.417000       1.00800           0
     11792 TIP3     1072     TIP3     H2       HT       0.417000       1.00800           0
     11793 TIP3     1073     TIP3     OH2      OT      -0.834000       15.9994           0
     11794 TIP3     1073     TIP3     H1       HT       0.417000       1.00800           0
     11795 TIP3     1073     TIP3     H2       HT       0.417000       1.00800           0
     11796 TIP3     1074     TIP3     OH2      OT      -0.834000       15.9994           0
     11797 TIP3     1074     TIP3     H1       HT       0.417000       1.00800           0
     11798 TIP3     1074     TIP3     H2       HT       0.417000       1.00800           0
     11799 TIP3     1075     TIP3     OH2      OT      -0.834000       15.9994           0
     11800 TIP3     1075     TIP3     H1       HT       0.417000       1.00800           0
     11801 TIP3     1075     TIP3     H2       HT       0.417000       1.00800           0
     11802 TIP3     1076     TIP3     OH2      OT      -0.834000       15.9994           0
     11803 TIP3     1076     TIP3     H1       HT       0.417000       1.00800           0
     11804 TIP3     1076     TIP3     H2       HT       0.417000       1.00800           0
     11805 TIP3     1077     TIP3     OH2      OT      -0.834000       15.9994           0
     11806 TIP3     1077     TIP3     H1       HT       0.417000       1.00800           0
     11807 TIP3     1077     TIP3     H2       HT       0.417000       1.00800           0
     11808 TIP3     1078     TIP3     OH2      OT      -0.834000       15.9994           0
     11809 TIP3     1078     TIP3     H1       HT       0.417000       1.00800           0
     11810 TIP3     1078     TIP3     H2       HT       0.417000       1.00800           0
     11811 TIP3     1079     TIP3     OH2      OT      -0.834000       15.9994           0
     11812 TIP3     1079     TIP3     H1       HT       0.417000       1.00800           0
     11813 TIP3     1079     TIP3     H2       HT       0.417000       1.00800           0
     11814 TIP3     1080     TIP3     OH2      OT      -0.834000       15.9994           0
     11815 TIP3     1080     TIP3     H1       HT       0.417000       1.00800           0
     11816 TIP3     1080     TIP3     H2       HT       0.417000       1.00800           0
     11817 TIP3     1081     TIP3     OH2      OT      -0.834000       15.9994           0
     11818 TIP3     1081     TIP3     H1       HT       0.417000       1.00800           0
     11819 TIP3     1081     TIP3     H2       HT       0.417000       1.00800           0
     11820 TIP3     1082     TIP3     OH2      OT      -0.834000       15.9994           0
     11821 TIP3     1082     TIP3     H1       HT       0.417000       1.00800           0
     11822 TIP3     1082     TIP3     H2       HT       0.417000       1.00800           0
     11823 TIP3     1083     TIP3     OH2      OT      -0.834000       15.9994           0
     11824 TIP3     1083     TIP3     H1       HT       0.417000       1.00800           0
     11825 TIP3     1083     TIP3     H2       HT       0.417000       1.00800           0
     11826 TIP3     1084     TIP3     OH2      OT      -0.834000       15.9994           0
     11827 TIP3     1084     TIP3     H1       HT       0.417000       1.00800           0
     11828 TIP3     1084     TIP3     H2       HT       0.417000       1.00800           0
     11829 TIP3     1085     TIP3     OH2      OT      -0.834000       15.9994           0
     11830 TIP3     1085     TIP3     H1       HT       0.417000       1.00800           0
     11831 TIP3     1085     TIP3     H2       HT       0.417000       1.00800           0
     11832 TIP3     1086     TIP3     OH2      OT      -0.834000       15.9994           0
     11833 TIP3     1086     TIP3     H1       HT       0.417000       1.00800           0
     11834 TIP3     1086     TIP3     H2       HT       0.417000       1.00800           0
     11835 TIP3     1087     TIP3     OH2      OT      -0.834000       15.9994           0
     11836 TIP3     1087     TIP3     H1       HT       0.417000       1.00800           0
     11837 TIP3     1087     TIP3     H2       HT       0.417000       1.00800           0
     11838 TIP3     1088     TIP3     OH2      OT      -0.834000       15.9994           0
     11839 TIP3     1088     TIP3     H1       HT       0.417000       1.00800           0
     11840 TIP3     1088     TIP3     H2       HT       0.417000       1.00800           0
     11841 TIP3     1089     TIP3     OH2      OT      -0.834000       15.9994           0
     11842 TIP3     1089     TIP3     H1       HT       0.417000       1.00800           0
     11843 TIP3     1089     TIP3     H2       HT       0.417000       1.00800           0
     11844 TIP3     1090     TIP3     OH2      OT      -0.834000       15.9994           0
     11845 TIP3     1090     TIP3     H1       HT       0.417000       1.00800           0
     11846 TIP3     1090     TIP3     H2       HT       0.417000       1.00800           0
     11847 TIP3     1091     TIP3     OH2      OT      -0.834000       15.9994           0
     11848 TIP3     1091     TIP3     H1       HT       0.417000       1.00800           0
     11849 TIP3     1091     TIP3     H2       HT       0.417000       1.00800           0
     11850 TIP3     1092     TIP3     OH2      OT      -0.834000       15.9994           0
     11851 TIP3     1092     TIP3     H1       HT       0.417000       1.00800           0
     11852 TIP3     1092     TIP3     H2       HT       0.417000       1.00800           0
     11853 TIP3     1093     TIP3     OH2      OT      -0.834000       15.9994           0
     11854 TIP3     1093     TIP3     H1       HT       0.417000       1.00800           0
     11855 TIP3     1093     TIP3     H2       HT       0.417000       1.00800           0
     11856 TIP3     1094     TIP3     OH2      OT      -0.834000       15.9994           0
     11857 TIP3     1094     TIP3     H1       HT       0.417000       1.00800           0
     11858 TIP3     1094     TIP3     H2       HT       0.417000       1.00800           0
     11859 TIP3     1095     TIP3     OH2      OT      -0.834000       15.9994           0
     11860 TIP3     1095     TIP3     H1       HT       0.417000       1.00800           0
     11861 TIP3     1095     TIP3     H2       HT       0.417000       1.00800           0
     11862 TIP3     1096     TIP3     OH2      OT      -0.834000       15.9994           0
     11863 TIP3     1096     TIP3     H1       HT       0.417000       1.00800           0
     11864 TIP3     1096     TIP3     H2       HT       0.417000       1.00800           0
     11865 TIP3     1097     TIP3     OH2      OT      -0.834000       15.9994           0
     11866 TIP3     1097     TIP3     H1       HT       0.417000       1.00800           0
     11867 TIP3     1097     TIP3     H2       HT       0.417000       1.00800           0
     11868 TIP3     1098     TIP3     OH2      OT      -0.834000       15.9994           0
     11869 TIP3     1098     TIP3     H1       HT       0.417000       1.00800           0
     11870 TIP3     1098     TIP3     H2       HT       0.417000       1.00800           0
     11871 TIP3     1099     TIP3     OH2      OT      -0.834000       15.9994           0
     11872 TIP3     1099     TIP3     H1       HT       0.417000       1.00800           0
     11873 TIP3     1099     TIP3     H2       HT       0.417000       1.00800           0
     11874 TIP3     1100     TIP3     OH2      OT      -0.834000       15.9994           0
     11875 TIP3     1100     TIP3     H1       HT       0.417000       1.00800           0
     11876 TIP3     1100     TIP3     H2       HT       0.417000       1.00800           0
     11877 TIP3     1101     TIP3     OH2      OT      -0.834000       15.9994           0
     11878 TIP3     1101     TIP3     H1       HT       0.417000       1.00800           0
     11879 TIP3     1101     TIP3     H2       HT       0.417000       1.00800           0
     11880 TIP3     1102     TIP3     OH2      OT      -0.834000       15.9994           0
     11881 TIP3     1102     TIP3     H1       HT       0.417000       1.00800           0
     11882 TIP3     1102     TIP3     H2       HT       0.417000       1.00800           0
     11883 TIP3     1103     TIP3     OH2      OT      -0.834000       15.9994           0
     11884 TIP3     1103     TIP3     H1       HT       0.417000       1.00800           0
     11885 TIP3     1103     TIP3     H2       HT       0.417000       1.00800           0
     11886 TIP3     1104     TIP3     OH2      OT      -0.834000       15.9994           0
     11887 TIP3     1104     TIP3     H1       HT       0.417000       1.00800           0
     11888 TIP3     1104     TIP3     H2       HT       0.417000       1.00800           0
     11889 TIP3     1105     TIP3     OH2      OT      -0.834000       15.9994           0
     11890 TIP3     1105     TIP3     H1       HT       0.417000       1.00800           0
     11891 TIP3     1105     TIP3     H2       HT       0.417000       1.00800           0
     11892 TIP3     1106     TIP3     OH2      OT      -0.834000       15.9994           0
     11893 TIP3     1106     TIP3     H1       HT       0.417000       1.00800           0
     11894 TIP3     1106     TIP3     H2       HT       0.417000       1.00800           0
     11895 TIP3     1107     TIP3     OH2      OT      -0.834000       15.9994           0
     11896 TIP3     1107     TIP3     H1       HT       0.417000       1.00800           0
     11897 TIP3     1107     TIP3     H2       HT       0.417000       1.00800           0
     11898 TIP3     1108     TIP3     OH2      OT      -0.834000       15.9994           0
     11899 TIP3     1108     TIP3     H1       HT       0.417000       1.00800           0
     11900 TIP3     1108     TIP3     H2       HT       0.417000       1.00800           0
     11901 TIP3     1109     TIP3     OH2      OT      -0.834000       15.9994           0
     11902 TIP3     1109     TIP3     H1       HT       0.417000       1.00800           0
     11903 TIP3     1109     TIP3     H2       HT       0.417000       1.00800           0
     11904 TIP3     1110     TIP3     OH2      OT      -0.834000       15.9994           0
     11905 TIP3     1110     TIP3     H1       HT       0.417000       1.00800           0
     11906 TIP3     1110     TIP3     H2       HT       0.417000       1.00800           0
     11907 TIP3     1111     TIP3     OH2      OT      -0.834000       15.9994           0
     11908 TIP3     1111     TIP3     H1       HT       0.417000       1.00800           0
     11909 TIP3     1111     TIP3     H2       HT       0.417000       1.00800           0
     11910 TIP3     1112     TIP3     OH2      OT      -0.834000       15.9994           0
     11911 TIP3     1112     TIP3     H1       HT       0.417000       1.00800           0
     11912 TIP3     1112     TIP3     H2       HT       0.417000       1.00800           0
     11913 TIP3     1113     TIP3     OH2      OT      -0.834000       15.9994           0
     11914 TIP3     1113     TIP3     H1       HT       0.417000       1.00800           0
     11915 TIP3     1113     TIP3     H2       HT       0.417000       1.00800           0
     11916 TIP3     1114     TIP3     OH2      OT      -0.834000       15.9994           0
     11917 TIP3     1114     TIP3     H1       HT       0.417000       1.00800           0
     11918 TIP3     1114     TIP3     H2       HT       0.417000       1.00800           0
     11919 TIP3     1115     TIP3     OH2      OT      -0.834000       15.9994           0
     11920 TIP3     1115     TIP3     H1       HT       0.417000       1.00800           0
     11921 TIP3     1115     TIP3     H2       HT       0.417000       1.00800           0
     11922 TIP3     1116     TIP3     OH2      OT      -0.834000       15.9994           0
     11923 TIP3     1116     TIP3     H1       HT       0.417000       1.00800           0
     11924 TIP3     1116     TIP3     H2       HT       0.417000       1.00800           0
     11925 TIP3     1117     TIP3     OH2      OT      -0.834000       15.9994           0
     11926 TIP3     1117     TIP3     H1       HT       0.417000       1.00800           0
     11927 TIP3     1117     TIP3     H2       HT       0.417000       1.00800           0
     11928 TIP3     1118     TIP3     OH2      OT      -0.834000       15.9994           0
     11929 TIP3     1118     TIP3     H1       HT       0.417000       1.00800           0
     11930 TIP3     1118     TIP3     H2       HT       0.417000       1.00800           0
     11931 TIP3     1119     TIP3     OH2      OT      -0.834000       15.9994           0
     11932 TIP3     1119     TIP3     H1       HT       0.417000       1.00800           0
     11933 TIP3     1119     TIP3     H2       HT       0.417000       1.00800           0
     11934 TIP3     1120     TIP3     OH2      OT      -0.834000       15.9994           0
     11935 TIP3     1120     TIP3     H1       HT       0.417000       1.00800           0
     11936 TIP3     1120     TIP3     H2       HT       0.417000       1.00800           0
     11937 TIP3     1121     TIP3     OH2      OT      -0.834000       15.9994           0
     11938 TIP3     1121     TIP3     H1       HT       0.417000       1.00800           0
     11939 TIP3     1121     TIP3     H2       HT       0.417000       1.00800           0
     11940 TIP3     1122     TIP3     OH2      OT      -0.834000       15.9994           0
     11941 TIP3     1122     TIP3     H1       HT       0.417000       1.00800           0
     11942 TIP3     1122     TIP3     H2       HT       0.417000       1.00800           0
     11943 TIP3     1123     TIP3     OH2      OT      -0.834000       15.9994           0
     11944 TIP3     1123     TIP3     H1       HT       0.417000       1.00800           0
     11945 TIP3     1123     TIP3     H2       HT       0.417000       1.00800           0
     11946 TIP3     1124     TIP3     OH2      OT      -0.834000       15.9994           0
     11947 TIP3     1124     TIP3     H1       HT       0.417000       1.00800           0
     11948 TIP3     1124     TIP3     H2       HT       0.417000       1.00800           0
     11949 TIP3     1125     TIP3     OH2      OT      -0.834000       15.9994           0
     11950 TIP3     1125     TIP3     H1       HT       0.417000       1.00800           0
     11951 TIP3     1125     TIP3     H2       HT       0.417000       1.00800           0
     11952 TIP3     1126     TIP3     OH2      OT      -0.834000       15.9994           0
     11953 TIP3     1126     TIP3     H1       HT       0.417000       1.00800           0
     11954 TIP3     1126     TIP3     H2       HT       0.417000       1.00800           0
     11955 TIP3     1127     TIP3     OH2      OT      -0.834000       15.9994           0
     11956 TIP3     1127     TIP3     H1       HT       0.417000       1.00800           0
     11957 TIP3     1127     TIP3     H2       HT       0.417000       1.00800           0
     11958 TIP3     1128     TIP3     OH2      OT      -0.834000       15.9994           0
     11959 TIP3     1128     TIP3     H1       HT       0.417000       1.00800           0
     11960 TIP3     1128     TIP3     H2       HT       0.417000       1.00800           0
     11961 TIP3     1129     TIP3     OH2      OT      -0.834000       15.9994           0
     11962 TIP3     1129     TIP3     H1       HT       0.417000       1.00800           0
     11963 TIP3     1129     TIP3     H2       HT       0.417000       1.00800           0
     11964 TIP3     1130     TIP3     OH2      OT      -0.834000       15.9994           0
     11965 TIP3     1130     TIP3     H1       HT       0.417000       1.00800           0
     11966 TIP3     1130     TIP3     H2       HT       0.417000       1.00800           0
     11967 TIP3     1131     TIP3     OH2      OT      -0.834000       15.9994           0
     11968 TIP3     1131     TIP3     H1       HT       0.417000       1.00800           0
     11969 TIP3     1131     TIP3     H2       HT       0.417000       1.00800           0
     11970 TIP3     1132     TIP3     OH2      OT      -0.834000       15.9994           0
     11971 TIP3     1132     TIP3     H1       HT       0.417000       1.00800           0
     11972 TIP3     1132     TIP3     H2       HT       0.417000       1.00800           0
     11973 TIP3     1133     TIP3     OH2      OT      -0.834000       15.9994           0
     11974 TIP3     1133     TIP3     H1       HT       0.417000       1.00800           0
     11975 TIP3     1133     TIP3     H2       HT       0.417000       1.00800           0
     11976 TIP3     1134     TIP3     OH2      OT      -0.834000       15.9994           0
     11977 TIP3     1134     TIP3     H1       HT       0.417000       1.00800           0
     11978 TIP3     1134     TIP3     H2       HT       0.417000       1.00800           0
     11979 TIP3     1135     TIP3     OH2      OT      -0.834000       15.9994           0
     11980 TIP3     1135     TIP3     H1       HT       0.417000       1.00800           0
     11981 TIP3     1135     TIP3     H2       HT       0.417000       1.00800           0
     11982 TIP3     1136     TIP3     OH2      OT      -0.834000       15.9994           0
     11983 TIP3     1136     TIP3     H1       HT       0.417000       1.00800           0
     11984 TIP3     1136     TIP3     H2       HT       0.417000       1.00800           0
     11985 TIP3     1137     TIP3     OH2      OT      -0.834000       15.9994           0
     11986 TIP3     1137     TIP3     H1       HT       0.417000       1.00800           0
     11987 TIP3     1137     TIP3     H2       HT       0.417000       1.00800           0
     11988 TIP3     1138     TIP3     OH2      OT      -0.834000       15.9994           0
     11989 TIP3     1138     TIP3     H1       HT       0.417000       1.00800           0
     11990 TIP3     1138     TIP3     H2       HT       0.417000       1.00800           0
     11991 TIP3     1139     TIP3     OH2      OT      -0.834000       15.9994           0
     11992 TIP3     1139     TIP3     H1       HT       0.417000       1.00800           0
     11993 TIP3     1139     TIP3     H2       HT       0.417000       1.00800           0
     11994 TIP3     1140     TIP3     OH2      OT      -0.834000       15.9994           0
     11995 TIP3     1140     TIP3     H1       HT       0.417000       1.00800           0
     11996 TIP3     1140     TIP3     H2       HT       0.417000       1.00800           0
     11997 TIP3     1141     TIP3     OH2      OT      -0.834000       15.9994           0
     11998 TIP3     1141     TIP3     H1       HT       0.417000       1.00800           0
     11999 TIP3     1141     TIP3     H2       HT       0.417000       1.00800           0
     12000 TIP3     1142     TIP3     OH2      OT      -0.834000       15.9994           0
     12001 TIP3     1142     TIP3     H1       HT       0.417000       1.00800           0
     12002 TIP3     1142     TIP3     H2       HT       0.417000       1.00800           0
     12003 TIP3     1143     TIP3     OH2      OT      -0.834000       15.9994           0
     12004 TIP3     1143     TIP3     H1       HT       0.417000       1.00800           0
     12005 TIP3     1143     TIP3     H2       HT       0.417000       1.00800           0
     12006 TIP3     1144     TIP3     OH2      OT      -0.834000       15.9994           0
     12007 TIP3     1144     TIP3     H1       HT       0.417000       1.00800           0
     12008 TIP3     1144     TIP3     H2       HT       0.417000       1.00800           0
     12009 TIP3     1145     TIP3     OH2      OT      -0.834000       15.9994           0
     12010 TIP3     1145     TIP3     H1       HT       0.417000       1.00800           0
     12011 TIP3     1145     TIP3     H2       HT       0.417000       1.00800           0
     12012 TIP3     1146     TIP3     OH2      OT      -0.834000       15.9994           0
     12013 TIP3     1146     TIP3     H1       HT       0.417000       1.00800           0
     12014 TIP3     1146     TIP3     H2       HT       0.417000       1.00800           0
     12015 TIP3     1147     TIP3     OH2      OT      -0.834000       15.9994           0
     12016 TIP3     1147     TIP3     H1       HT       0.417000       1.00800           0
     12017 TIP3     1147     TIP3     H2       HT       0.417000       1.00800           0
     12018 TIP3     1148     TIP3     OH2      OT      -0.834000       15.9994           0
     12019 TIP3     1148     TIP3     H1       HT       0.417000       1.00800           0
     12020 TIP3     1148     TIP3     H2       HT       0.417000       1.00800           0
     12021 TIP3     1149     TIP3     OH2      OT      -0.834000       15.9994           0
     12022 TIP3     1149     TIP3     H1       HT       0.417000       1.00800           0
     12023 TIP3     1149     TIP3     H2       HT       0.417000       1.00800           0
     12024 TIP3     1150     TIP3     OH2      OT      -0.834000       15.9994           0
     12025 TIP3     1150     TIP3     H1       HT       0.417000       1.00800           0
     12026 TIP3     1150     TIP3     H2       HT       0.417000       1.00800           0
     12027 TIP3     1151     TIP3     OH2      OT      -0.834000       15.9994           0
     12028 TIP3     1151     TIP3     H1       HT       0.417000       1.00800           0
     12029 TIP3     1151     TIP3     H2       HT       0.417000       1.00800           0
     12030 TIP3     1152     TIP3     OH2      OT      -0.834000       15.9994           0
     12031 TIP3     1152     TIP3     H1       HT       0.417000       1.00800           0
     12032 TIP3     1152     TIP3     H2       HT       0.417000       1.00800           0
     12033 TIP3     1153     TIP3     OH2      OT      -0.834000       15.9994           0
     12034 TIP3     1153     TIP3     H1       HT       0.417000       1.00800           0
     12035 TIP3     1153     TIP3     H2       HT       0.417000       1.00800           0
     12036 TIP3     1154     TIP3     OH2      OT      -0.834000       15.9994           0
     12037 TIP3     1154     TIP3     H1       HT       0.417000       1.00800           0
     12038 TIP3     1154     TIP3     H2       HT       0.417000       1.00800           0
     12039 TIP3     1155     TIP3     OH2      OT      -0.834000       15.9994           0
     12040 TIP3     1155     TIP3     H1       HT       0.417000       1.00800           0
     12041 TIP3     1155     TIP3     H2       HT       0.417000       1.00800           0
     12042 TIP3     1156     TIP3     OH2      OT      -0.834000       15.9994           0
     12043 TIP3     1156     TIP3     H1       HT       0.417000       1.00800           0
     12044 TIP3     1156     TIP3     H2       HT       0.417000       1.00800           0
     12045 TIP3     1157     TIP3     OH2      OT      -0.834000       15.9994           0
     12046 TIP3     1157     TIP3     H1       HT       0.417000       1.00800           0
     12047 TIP3     1157     TIP3     H2       HT       0.417000       1.00800           0
     12048 TIP3     1158     TIP3     OH2      OT      -0.834000       15.9994           0
     12049 TIP3     1158     TIP3     H1       HT       0.417000       1.00800           0
     12050 TIP3     1158     TIP3     H2       HT       0.417000       1.00800           0
     12051 TIP3     1159     TIP3     OH2      OT      -0.834000       15.9994           0
     12052 TIP3     1159     TIP3     H1       HT       0.417000       1.00800           0
     12053 TIP3     1159     TIP3     H2       HT       0.417000       1.00800           0
     12054 TIP3     1160     TIP3     OH2      OT      -0.834000       15.9994           0
     12055 TIP3     1160     TIP3     H1       HT       0.417000       1.00800           0
     12056 TIP3     1160     TIP3     H2       HT       0.417000       1.00800           0
     12057 TIP3     1161     TIP3     OH2      OT      -0.834000       15.9994           0
     12058 TIP3     1161     TIP3     H1       HT       0.417000       1.00800           0
     12059 TIP3     1161     TIP3     H2       HT       0.417000       1.00800           0
     12060 TIP3     1162     TIP3     OH2      OT      -0.834000       15.9994           0
     12061 TIP3     1162     TIP3     H1       HT       0.417000       1.00800           0
     12062 TIP3     1162     TIP3     H2       HT       0.417000       1.00800           0
     12063 TIP3     1163     TIP3     OH2      OT      -0.834000       15.9994           0
     12064 TIP3     1163     TIP3     H1       HT       0.417000       1.00800           0
     12065 TIP3     1163     TIP3     H2       HT       0.417000       1.00800           0
     12066 TIP3     1164     TIP3     OH2      OT      -0.834000       15.9994           0
     12067 TIP3     1164     TIP3     H1       HT       0.417000       1.00800           0
     12068 TIP3     1164     TIP3     H2       HT       0.417000       1.00800           0
     12069 TIP3     1165     TIP3     OH2      OT      -0.834000       15.9994           0
     12070 TIP3     1165     TIP3     H1       HT       0.417000       1.00800           0
     12071 TIP3     1165     TIP3     H2       HT       0.417000       1.00800           0
     12072 TIP3     1166     TIP3     OH2      OT      -0.834000       15.9994           0
     12073 TIP3     1166     TIP3     H1       HT       0.417000       1.00800           0
     12074 TIP3     1166     TIP3     H2       HT       0.417000       1.00800           0
     12075 TIP3     1167     TIP3     OH2      OT      -0.834000       15.9994           0
     12076 TIP3     1167     TIP3     H1       HT       0.417000       1.00800           0
     12077 TIP3     1167     TIP3     H2       HT       0.417000       1.00800           0
     12078 TIP3     1168     TIP3     OH2      OT      -0.834000       15.9994           0
     12079 TIP3     1168     TIP3     H1       HT       0.417000       1.00800           0
     12080 TIP3     1168     TIP3     H2       HT       0.417000       1.00800           0
     12081 TIP3     1169     TIP3     OH2      OT      -0.834000       15.9994           0
     12082 TIP3     1169     TIP3     H1       HT       0.417000       1.00800           0
     12083 TIP3     1169     TIP3     H2       HT       0.417000       1.00800           0
     12084 TIP3     1170     TIP3     OH2      OT      -0.834000       15.9994           0
     12085 TIP3     1170     TIP3     H1       HT       0.417000       1.00800           0
     12086 TIP3     1170     TIP3     H2       HT       0.417000       1.00800           0
     12087 TIP3     1171     TIP3     OH2      OT      -0.834000       15.9994           0
     12088 TIP3     1171     TIP3     H1       HT       0.417000       1.00800           0
     12089 TIP3     1171     TIP3     H2       HT       0.417000       1.00800           0
     12090 TIP3     1172     TIP3     OH2      OT      -0.834000       15.9994           0
     12091 TIP3     1172     TIP3     H1       HT       0.417000       1.00800           0
     12092 TIP3     1172     TIP3     H2       HT       0.417000       1.00800           0
     12093 TIP3     1173     TIP3     OH2      OT      -0.834000       15.9994           0
     12094 TIP3     1173     TIP3     H1       HT       0.417000       1.00800           0
     12095 TIP3     1173     TIP3     H2       HT       0.417000       1.00800           0
     12096 TIP3     1174     TIP3     OH2      OT      -0.834000       15.9994           0
     12097 TIP3     1174     TIP3     H1       HT       0.417000       1.00800           0
     12098 TIP3     1174     TIP3     H2       HT       0.417000       1.00800           0
     12099 TIP3     1175     TIP3     OH2      OT      -0.834000       15.9994           0
     12100 TIP3     1175     TIP3     H1       HT       0.417000       1.00800           0
     12101 TIP3     1175     TIP3     H2       HT       0.417000       1.00800           0
     12102 TIP3     1176     TIP3     OH2      OT      -0.834000       15.9994           0
     12103 TIP3     1176     TIP3     H1       HT       0.417000       1.00800           0
     12104 TIP3     1176     TIP3     H2       HT       0.417000       1.00800           0
     12105 TIP3     1177     TIP3     OH2      OT      -0.834000       15.9994           0
     12106 TIP3     1177     TIP3     H1       HT       0.417000       1.00800           0
     12107 TIP3     1177     TIP3     H2       HT       0.417000       1.00800           0
     12108 TIP3     1178     TIP3     OH2      OT      -0.834000       15.9994           0
     12109 TIP3     1178     TIP3     H1       HT       0.417000       1.00800           0
     12110 TIP3     1178     TIP3     H2       HT       0.417000       1.00800           0
     12111 TIP3     1179     TIP3     OH2      OT      -0.834000       15.9994           0
     12112 TIP3     1179     TIP3     H1       HT       0.417000       1.00800           0
     12113 TIP3     1179     TIP3     H2       HT       0.417000       1.00800           0
     12114 TIP3     1180     TIP3     OH2      OT      -0.834000       15.9994           0
     12115 TIP3     1180     TIP3     H1       HT       0.417000       1.00800           0
     12116 TIP3     1180     TIP3     H2       HT       0.417000       1.00800           0
     12117 TIP3     1181     TIP3     OH2      OT      -0.834000       15.9994           0
     12118 TIP3     1181     TIP3     H1       HT       0.417000       1.00800           0
     12119 TIP3     1181     TIP3     H2       HT       0.417000       1.00800           0
     12120 TIP3     1182     TIP3     OH2      OT      -0.834000       15.9994           0
     12121 TIP3     1182     TIP3     H1       HT       0.417000       1.00800           0
     12122 TIP3     1182     TIP3     H2       HT       0.417000       1.00800           0
     12123 TIP3     1183     TIP3     OH2      OT      -0.834000       15.9994           0
     12124 TIP3     1183     TIP3     H1       HT       0.417000       1.00800           0
     12125 TIP3     1183     TIP3     H2       HT       0.417000       1.00800           0
     12126 TIP3     1184     TIP3     OH2      OT      -0.834000       15.9994           0
     12127 TIP3     1184     TIP3     H1       HT       0.417000       1.00800           0
     12128 TIP3     1184     TIP3     H2       HT       0.417000       1.00800           0
     12129 TIP3     1185     TIP3     OH2      OT      -0.834000       15.9994           0
     12130 TIP3     1185     TIP3     H1       HT       0.417000       1.00800           0
     12131 TIP3     1185     TIP3     H2       HT       0.417000       1.00800           0
     12132 TIP3     1186     TIP3     OH2      OT      -0.834000       15.9994           0
     12133 TIP3     1186     TIP3     H1       HT       0.417000       1.00800           0
     12134 TIP3     1186     TIP3     H2       HT       0.417000       1.00800           0
     12135 TIP3     1187     TIP3     OH2      OT      -0.834000       15.9994           0
     12136 TIP3     1187     TIP3     H1       HT       0.417000       1.00800           0
     12137 TIP3     1187     TIP3     H2       HT       0.417000       1.00800           0
     12138 TIP3     1188     TIP3     OH2      OT      -0.834000       15.9994           0
     12139 TIP3     1188     TIP3     H1       HT       0.417000       1.00800           0
     12140 TIP3     1188     TIP3     H2       HT       0.417000       1.00800           0
     12141 TIP3     1189     TIP3     OH2      OT      -0.834000       15.9994           0
     12142 TIP3     1189     TIP3     H1       HT       0.417000       1.00800           0
     12143 TIP3     1189     TIP3     H2       HT       0.417000       1.00800           0
     12144 TIP3     1190     TIP3     OH2      OT      -0.834000       15.9994           0
     12145 TIP3     1190     TIP3     H1       HT       0.417000       1.00800           0
     12146 TIP3     1190     TIP3     H2       HT       0.417000       1.00800           0
     12147 TIP3     1191     TIP3     OH2      OT      -0.834000       15.9994           0
     12148 TIP3     1191     TIP3     H1       HT       0.417000       1.00800           0
     12149 TIP3     1191     TIP3     H2       HT       0.417000       1.00800           0
     12150 TIP3     1192     TIP3     OH2      OT      -0.834000       15.9994           0
     12151 TIP3     1192     TIP3     H1       HT       0.417000       1.00800           0
     12152 TIP3     1192     TIP3     H2       HT       0.417000       1.00800           0
     12153 TIP3     1193     TIP3     OH2      OT      -0.834000       15.9994           0
     12154 TIP3     1193     TIP3     H1       HT       0.417000       1.00800           0
     12155 TIP3     1193     TIP3     H2       HT       0.417000       1.00800           0
     12156 TIP3     1194     TIP3     OH2      OT      -0.834000       15.9994           0
     12157 TIP3     1194     TIP3     H1       HT       0.417000       1.00800           0
     12158 TIP3     1194     TIP3     H2       HT       0.417000       1.00800           0
     12159 TIP3     1195     TIP3     OH2      OT      -0.834000       15.9994           0
     12160 TIP3     1195     TIP3     H1       HT       0.417000       1.00800           0
     12161 TIP3     1195     TIP3     H2       HT       0.417000       1.00800           0
     12162 TIP3     1196     TIP3     OH2      OT      -0.834000       15.9994           0
     12163 TIP3     1196     TIP3     H1       HT       0.417000       1.00800           0
     12164 TIP3     1196     TIP3     H2       HT       0.417000       1.00800           0
     12165 TIP3     1197     TIP3     OH2      OT      -0.834000       15.9994           0
     12166 TIP3     1197     TIP3     H1       HT       0.417000       1.00800           0
     12167 TIP3     1197     TIP3     H2       HT       0.417000       1.00800           0
     12168 TIP3     1198     TIP3     OH2      OT      -0.834000       15.9994           0
     12169 TIP3     1198     TIP3     H1       HT       0.417000       1.00800           0
     12170 TIP3     1198     TIP3     H2       HT       0.417000       1.00800           0
     12171 TIP3     1199     TIP3     OH2      OT      -0.834000       15.9994           0
     12172 TIP3     1199     TIP3     H1       HT       0.417000       1.00800           0
     12173 TIP3     1199     TIP3     H2       HT       0.417000       1.00800           0
     12174 TIP3     1200     TIP3     OH2      OT      -0.834000       15.9994           0
     12175 TIP3     1200     TIP3     H1       HT       0.417000       1.00800           0
     12176 TIP3     1200     TIP3     H2       HT       0.417000       1.00800           0
     12177 TIP3     1201     TIP3     OH2      OT      -0.834000       15.9994           0
     12178 TIP3     1201     TIP3     H1       HT       0.417000       1.00800           0
     12179 TIP3     1201     TIP3     H2       HT       0.417000       1.00800           0
     12180 TIP3     1202     TIP3     OH2      OT      -0.834000       15.9994           0
     12181 TIP3     1202     TIP3     H1       HT       0.417000       1.00800           0
     12182 TIP3     1202     TIP3     H2       HT       0.417000       1.00800           0
     12183 TIP3     1203     TIP3     OH2      OT      -0.834000       15.9994           0
     12184 TIP3     1203     TIP3     H1       HT       0.417000       1.00800           0
     12185 TIP3     1203     TIP3     H2       HT       0.417000       1.00800           0
     12186 TIP3     1204     TIP3     OH2      OT      -0.834000       15.9994           0
     12187 TIP3     1204     TIP3     H1       HT       0.417000       1.00800           0
     12188 TIP3     1204     TIP3     H2       HT       0.417000       1.00800           0
     12189 TIP3     1205     TIP3     OH2      OT      -0.834000       15.9994           0
     12190 TIP3     1205     TIP3     H1       HT       0.417000       1.00800           0
     12191 TIP3     1205     TIP3     H2       HT       0.417000       1.00800           0
     12192 TIP3     1206     TIP3     OH2      OT      -0.834000       15.9994           0
     12193 TIP3     1206     TIP3     H1       HT       0.417000       1.00800           0
     12194 TIP3     1206     TIP3     H2       HT       0.417000       1.00800           0
     12195 TIP3     1207     TIP3     OH2      OT      -0.834000       15.9994           0
     12196 TIP3     1207     TIP3     H1       HT       0.417000       1.00800           0
     12197 TIP3     1207     TIP3     H2       HT       0.417000       1.00800           0
     12198 TIP3     1208     TIP3     OH2      OT      -0.834000       15.9994           0
     12199 TIP3     1208     TIP3     H1       HT       0.417000       1.00800           0
     12200 TIP3     1208     TIP3     H2       HT       0.417000       1.00800           0
     12201 TIP3     1209     TIP3     OH2      OT      -0.834000       15.9994           0
     12202 TIP3     1209     TIP3     H1       HT       0.417000       1.00800           0
     12203 TIP3     1209     TIP3     H2       HT       0.417000       1.00800           0
     12204 TIP3     1210     TIP3     OH2      OT      -0.834000       15.9994           0
     12205 TIP3     1210     TIP3     H1       HT       0.417000       1.00800           0
     12206 TIP3     1210     TIP3     H2       HT       0.417000       1.00800           0
     12207 TIP3     1211     TIP3     OH2      OT      -0.834000       15.9994           0
     12208 TIP3     1211     TIP3     H1       HT       0.417000       1.00800           0
     12209 TIP3     1211     TIP3     H2       HT       0.417000       1.00800           0
     12210 TIP3     1212     TIP3     OH2      OT      -0.834000       15.9994           0
     12211 TIP3     1212     TIP3     H1       HT       0.417000       1.00800           0
     12212 TIP3     1212     TIP3     H2       HT       0.417000       1.00800           0
     12213 TIP3     1213     TIP3     OH2      OT      -0.834000       15.9994           0
     12214 TIP3     1213     TIP3     H1       HT       0.417000       1.00800           0
     12215 TIP3     1213     TIP3     H2       HT       0.417000       1.00800           0
     12216 TIP3     1214     TIP3     OH2      OT      -0.834000       15.9994           0
     12217 TIP3     1214     TIP3     H1       HT       0.417000       1.00800           0
     12218 TIP3     1214     TIP3     H2       HT       0.417000       1.00800           0
     12219 TIP3     1215     TIP3     OH2      OT      -0.834000       15.9994           0
     12220 TIP3     1215     TIP3     H1       HT       0.417000       1.00800           0
     12221 TIP3     1215     TIP3     H2       HT       0.417000       1.00800           0
     12222 TIP3     1216     TIP3     OH2      OT      -0.834000       15.9994           0
     12223 TIP3     1216     TIP3     H1       HT       0.417000       1.00800           0
     12224 TIP3     1216     TIP3     H2       HT       0.417000       1.00800           0
     12225 TIP3     1217     TIP3     OH2      OT      -0.834000       15.9994           0
     12226 TIP3     1217     TIP3     H1       HT       0.417000       1.00800           0
     12227 TIP3     1217     TIP3     H2       HT       0.417000       1.00800           0
     12228 TIP3     1218     TIP3     OH2      OT      -0.834000       15.9994           0
     12229 TIP3     1218     TIP3     H1       HT       0.417000       1.00800           0
     12230 TIP3     1218     TIP3     H2       HT       0.417000       1.00800           0
     12231 TIP3     1219     TIP3     OH2      OT      -0.834000       15.9994           0
     12232 TIP3     1219     TIP3     H1       HT       0.417000       1.00800           0
     12233 TIP3     1219     TIP3     H2       HT       0.417000       1.00800           0
     12234 TIP3     1220     TIP3     OH2      OT      -0.834000       15.9994           0
     12235 TIP3     1220     TIP3     H1       HT       0.417000       1.00800           0
     12236 TIP3     1220     TIP3     H2       HT       0.417000       1.00800           0
     12237 TIP3     1221     TIP3     OH2      OT      -0.834000       15.9994           0
     12238 TIP3     1221     TIP3     H1       HT       0.417000       1.00800           0
     12239 TIP3     1221     TIP3     H2       HT       0.417000       1.00800           0
     12240 TIP3     1222     TIP3     OH2      OT      -0.834000       15.9994           0
     12241 TIP3     1222     TIP3     H1       HT       0.417000       1.00800           0
     12242 TIP3     1222     TIP3     H2       HT       0.417000       1.00800           0
     12243 TIP3     1223     TIP3     OH2      OT      -0.834000       15.9994           0
     12244 TIP3     1223     TIP3     H1       HT       0.417000       1.00800           0
     12245 TIP3     1223     TIP3     H2       HT       0.417000       1.00800           0
     12246 TIP3     1224     TIP3     OH2      OT      -0.834000       15.9994           0
     12247 TIP3     1224     TIP3     H1       HT       0.417000       1.00800           0
     12248 TIP3     1224     TIP3     H2       HT       0.417000       1.00800           0
     12249 TIP3     1225     TIP3     OH2      OT      -0.834000       15.9994           0
     12250 TIP3     1225     TIP3     H1       HT       0.417000       1.00800           0
     12251 TIP3     1225     TIP3     H2       HT       0.417000       1.00800           0
     12252 TIP3     1226     TIP3     OH2      OT      -0.834000       15.9994           0
     12253 TIP3     1226     TIP3     H1       HT       0.417000       1.00800           0
     12254 TIP3     1226     TIP3     H2       HT       0.417000       1.00800           0
     12255 TIP3     1227     TIP3     OH2      OT      -0.834000       15.9994           0
     12256 TIP3     1227     TIP3     H1       HT       0.417000       1.00800           0
     12257 TIP3     1227     TIP3     H2       HT       0.417000       1.00800           0
     12258 TIP3     1228     TIP3     OH2      OT      -0.834000       15.9994           0
     12259 TIP3     1228     TIP3     H1       HT       0.417000       1.00800           0
     12260 TIP3     1228     TIP3     H2       HT       0.417000       1.00800           0
     12261 TIP3     1229     TIP3     OH2      OT      -0.834000       15.9994           0
     12262 TIP3     1229     TIP3     H1       HT       0.417000       1.00800           0
     12263 TIP3     1229     TIP3     H2       HT       0.417000       1.00800           0
     12264 TIP3     1230     TIP3     OH2      OT      -0.834000       15.9994           0
     12265 TIP3     1230     TIP3     H1       HT       0.417000       1.00800           0
     12266 TIP3     1230     TIP3     H2       HT       0.417000       1.00800           0
     12267 TIP3     1231     TIP3     OH2      OT      -0.834000       15.9994           0
     12268 TIP3     1231     TIP3     H1       HT       0.417000       1.00800           0
     12269 TIP3     1231     TIP3     H2       HT       0.417000       1.00800           0
     12270 TIP3     1232     TIP3     OH2      OT      -0.834000       15.9994           0
     12271 TIP3     1232     TIP3     H1       HT       0.417000       1.00800           0
     12272 TIP3     1232     TIP3     H2       HT       0.417000       1.00800           0
     12273 TIP3     1233     TIP3     OH2      OT      -0.834000       15.9994           0
     12274 TIP3     1233     TIP3     H1       HT       0.417000       1.00800           0
     12275 TIP3     1233     TIP3     H2       HT       0.417000       1.00800           0
     12276 TIP3     1234     TIP3     OH2      OT      -0.834000       15.9994           0
     12277 TIP3     1234     TIP3     H1       HT       0.417000       1.00800           0
     12278 TIP3     1234     TIP3     H2       HT       0.417000       1.00800           0
     12279 TIP3     1235     TIP3     OH2      OT      -0.834000       15.9994           0
     12280 TIP3     1235     TIP3     H1       HT       0.417000       1.00800           0
     12281 TIP3     1235     TIP3     H2       HT       0.417000       1.00800           0
     12282 TIP3     1236     TIP3     OH2      OT      -0.834000       15.9994           0
     12283 TIP3     1236     TIP3     H1       HT       0.417000       1.00800           0
     12284 TIP3     1236     TIP3     H2       HT       0.417000       1.00800           0
     12285 TIP3     1237     TIP3     OH2      OT      -0.834000       15.9994           0
     12286 TIP3     1237     TIP3     H1       HT       0.417000       1.00800           0
     12287 TIP3     1237     TIP3     H2       HT       0.417000       1.00800           0
     12288 TIP3     1238     TIP3     OH2      OT      -0.834000       15.9994           0
     12289 TIP3     1238     TIP3     H1       HT       0.417000       1.00800           0
     12290 TIP3     1238     TIP3     H2       HT       0.417000       1.00800           0
     12291 TIP3     1239     TIP3     OH2      OT      -0.834000       15.9994           0
     12292 TIP3     1239     TIP3     H1       HT       0.417000       1.00800           0
     12293 TIP3     1239     TIP3     H2       HT       0.417000       1.00800           0
     12294 TIP3     1240     TIP3     OH2      OT      -0.834000       15.9994           0
     12295 TIP3     1240     TIP3     H1       HT       0.417000       1.00800           0
     12296 TIP3     1240     TIP3     H2       HT       0.417000       1.00800           0
     12297 TIP3     1241     TIP3     OH2      OT      -0.834000       15.9994           0
     12298 TIP3     1241     TIP3     H1       HT       0.417000       1.00800           0
     12299 TIP3     1241     TIP3     H2       HT       0.417000       1.00800           0
     12300 TIP3     1242     TIP3     OH2      OT      -0.834000       15.9994           0
     12301 TIP3     1242     TIP3     H1       HT       0.417000       1.00800           0
     12302 TIP3     1242     TIP3     H2       HT       0.417000       1.00800           0
     12303 TIP3     1243     TIP3     OH2      OT      -0.834000       15.9994           0
     12304 TIP3     1243     TIP3     H1       HT       0.417000       1.00800           0
     12305 TIP3     1243     TIP3     H2       HT       0.417000       1.00800           0
     12306 TIP3     1244     TIP3     OH2      OT      -0.834000       15.9994           0
     12307 TIP3     1244     TIP3     H1       HT       0.417000       1.00800           0
     12308 TIP3     1244     TIP3     H2       HT       0.417000       1.00800           0
     12309 TIP3     1245     TIP3     OH2      OT      -0.834000       15.9994           0
     12310 TIP3     1245     TIP3     H1       HT       0.417000       1.00800           0
     12311 TIP3     1245     TIP3     H2       HT       0.417000       1.00800           0
     12312 TIP3     1246     TIP3     OH2      OT      -0.834000       15.9994           0
     12313 TIP3     1246     TIP3     H1       HT       0.417000       1.00800           0
     12314 TIP3     1246     TIP3     H2       HT       0.417000       1.00800           0
     12315 TIP3     1247     TIP3     OH2      OT      -0.834000       15.9994           0
     12316 TIP3     1247     TIP3     H1       HT       0.417000       1.00800           0
     12317 TIP3     1247     TIP3     H2       HT       0.417000       1.00800           0
     12318 TIP3     1248     TIP3     OH2      OT      -0.834000       15.9994           0
     12319 TIP3     1248     TIP3     H1       HT       0.417000       1.00800           0
     12320 TIP3     1248     TIP3     H2       HT       0.417000       1.00800           0
     12321 TIP3     1249     TIP3     OH2      OT      -0.834000       15.9994           0
     12322 TIP3     1249     TIP3     H1       HT       0.417000       1.00800           0
     12323 TIP3     1249     TIP3     H2       HT       0.417000       1.00800           0
     12324 TIP3     1250     TIP3     OH2      OT      -0.834000       15.9994           0
     12325 TIP3     1250     TIP3     H1       HT       0.417000       1.00800           0
     12326 TIP3     1250     TIP3     H2       HT       0.417000       1.00800           0
     12327 TIP3     1251     TIP3     OH2      OT      -0.834000       15.9994           0
     12328 TIP3     1251     TIP3     H1       HT       0.417000       1.00800           0
     12329 TIP3     1251     TIP3     H2       HT       0.417000       1.00800           0
     12330 TIP3     1252     TIP3     OH2      OT      -0.834000       15.9994           0
     12331 TIP3     1252     TIP3     H1       HT       0.417000       1.00800           0
     12332 TIP3     1252     TIP3     H2       HT       0.417000       1.00800           0
     12333 TIP3     1253     TIP3     OH2      OT      -0.834000       15.9994           0
     12334 TIP3     1253     TIP3     H1       HT       0.417000       1.00800           0
     12335 TIP3     1253     TIP3     H2       HT       0.417000       1.00800           0
     12336 TIP3     1254     TIP3     OH2      OT      -0.834000       15.9994           0
     12337 TIP3     1254     TIP3     H1       HT       0.417000       1.00800           0
     12338 TIP3     1254     TIP3     H2       HT       0.417000       1.00800           0
     12339 TIP3     1255     TIP3     OH2      OT      -0.834000       15.9994           0
     12340 TIP3     1255     TIP3     H1       HT       0.417000       1.00800           0
     12341 TIP3     1255     TIP3     H2       HT       0.417000       1.00800           0
     12342 TIP3     1256     TIP3     OH2      OT      -0.834000       15.9994           0
     12343 TIP3     1256     TIP3     H1       HT       0.417000       1.00800           0
     12344 TIP3     1256     TIP3     H2       HT       0.417000       1.00800           0
     12345 TIP3     1257     TIP3     OH2      OT      -0.834000       15.9994           0
     12346 TIP3     1257     TIP3     H1       HT       0.417000       1.00800           0
     12347 TIP3     1257     TIP3     H2       HT       0.417000       1.00800           0
     12348 TIP3     1258     TIP3     OH2      OT      -0.834000       15.9994           0
     12349 TIP3     1258     TIP3     H1       HT       0.417000       1.00800           0
     12350 TIP3     1258     TIP3     H2       HT       0.417000       1.00800           0
     12351 TIP3     1259     TIP3     OH2      OT      -0.834000       15.9994           0
     12352 TIP3     1259     TIP3     H1       HT       0.417000       1.00800           0
     12353 TIP3     1259     TIP3     H2       HT       0.417000       1.00800           0
     12354 TIP3     1260     TIP3     OH2      OT      -0.834000       15.9994           0
     12355 TIP3     1260     TIP3     H1       HT       0.417000       1.00800           0
     12356 TIP3     1260     TIP3     H2       HT       0.417000       1.00800           0
     12357 TIP3     1261     TIP3     OH2      OT      -0.834000       15.9994           0
     12358 TIP3     1261     TIP3     H1       HT       0.417000       1.00800           0
     12359 TIP3     1261     TIP3     H2       HT       0.417000       1.00800           0
     12360 TIP3     1262     TIP3     OH2      OT      -0.834000       15.9994           0
     12361 TIP3     1262     TIP3     H1       HT       0.417000       1.00800           0
     12362 TIP3     1262     TIP3     H2       HT       0.417000       1.00800           0
     12363 TIP3     1263     TIP3     OH2      OT      -0.834000       15.9994           0
     12364 TIP3     1263     TIP3     H1       HT       0.417000       1.00800           0
     12365 TIP3     1263     TIP3     H2       HT       0.417000       1.00800           0
     12366 TIP3     1264     TIP3     OH2      OT      -0.834000       15.9994           0
     12367 TIP3     1264     TIP3     H1       HT       0.417000       1.00800           0
     12368 TIP3     1264     TIP3     H2       HT       0.417000       1.00800           0
     12369 TIP3     1265     TIP3     OH2      OT      -0.834000       15.9994           0
     12370 TIP3     1265     TIP3     H1       HT       0.417000       1.00800           0
     12371 TIP3     1265     TIP3     H2       HT       0.417000       1.00800           0
     12372 TIP3     1266     TIP3     OH2      OT      -0.834000       15.9994           0
     12373 TIP3     1266     TIP3     H1       HT       0.417000       1.00800           0
     12374 TIP3     1266     TIP3     H2       HT       0.417000       1.00800           0
     12375 TIP3     1267     TIP3     OH2      OT      -0.834000       15.9994           0
     12376 TIP3     1267     TIP3     H1       HT       0.417000       1.00800           0
     12377 TIP3     1267     TIP3     H2       HT       0.417000       1.00800           0
     12378 TIP3     1268     TIP3     OH2      OT      -0.834000       15.9994           0
     12379 TIP3     1268     TIP3     H1       HT       0.417000       1.00800           0
     12380 TIP3     1268     TIP3     H2       HT       0.417000       1.00800           0
     12381 TIP3     1269     TIP3     OH2      OT      -0.834000       15.9994           0
     12382 TIP3     1269     TIP3     H1       HT       0.417000       1.00800           0
     12383 TIP3     1269     TIP3     H2       HT       0.417000       1.00800           0
     12384 TIP3     1270     TIP3     OH2      OT      -0.834000       15.9994           0
     12385 TIP3     1270     TIP3     H1       HT       0.417000       1.00800           0
     12386 TIP3     1270     TIP3     H2       HT       0.417000       1.00800           0
     12387 TIP3     1271     TIP3     OH2      OT      -0.834000       15.9994           0
     12388 TIP3     1271     TIP3     H1       HT       0.417000       1.00800           0
     12389 TIP3     1271     TIP3     H2       HT       0.417000       1.00800           0
     12390 TIP3     1272     TIP3     OH2      OT      -0.834000       15.9994           0
     12391 TIP3     1272     TIP3     H1       HT       0.417000       1.00800           0
     12392 TIP3     1272     TIP3     H2       HT       0.417000       1.00800           0
     12393 TIP3     1273     TIP3     OH2      OT      -0.834000       15.9994           0
     12394 TIP3     1273     TIP3     H1       HT       0.417000       1.00800           0
     12395 TIP3     1273     TIP3     H2       HT       0.417000       1.00800           0
     12396 TIP3     1274     TIP3     OH2      OT      -0.834000       15.9994           0
     12397 TIP3     1274     TIP3     H1       HT       0.417000       1.00800           0
     12398 TIP3     1274     TIP3     H2       HT       0.417000       1.00800           0
     12399 TIP3     1275     TIP3     OH2      OT      -0.834000       15.9994           0
     12400 TIP3     1275     TIP3     H1       HT       0.417000       1.00800           0
     12401 TIP3     1275     TIP3     H2       HT       0.417000       1.00800           0
     12402 TIP3     1276     TIP3     OH2      OT      -0.834000       15.9994           0
     12403 TIP3     1276     TIP3     H1       HT       0.417000       1.00800           0
     12404 TIP3     1276     TIP3     H2       HT       0.417000       1.00800           0
     12405 TIP3     1277     TIP3     OH2      OT      -0.834000       15.9994           0
     12406 TIP3     1277     TIP3     H1       HT       0.417000       1.00800           0
     12407 TIP3     1277     TIP3     H2       HT       0.417000       1.00800           0
     12408 TIP3     1278     TIP3     OH2      OT      -0.834000       15.9994           0
     12409 TIP3     1278     TIP3     H1       HT       0.417000       1.00800           0
     12410 TIP3     1278     TIP3     H2       HT       0.417000       1.00800           0
     12411 TIP3     1279     TIP3     OH2      OT      -0.834000       15.9994           0
     12412 TIP3     1279     TIP3     H1       HT       0.417000       1.00800           0
     12413 TIP3     1279     TIP3     H2       HT       0.417000       1.00800           0
     12414 TIP3     1280     TIP3     OH2      OT      -0.834000       15.9994           0
     12415 TIP3     1280     TIP3     H1       HT       0.417000       1.00800           0
     12416 TIP3     1280     TIP3     H2       HT       0.417000       1.00800           0
     12417 TIP3     1281     TIP3     OH2      OT      -0.834000       15.9994           0
     12418 TIP3     1281     TIP3     H1       HT       0.417000       1.00800           0
     12419 TIP3     1281     TIP3     H2       HT       0.417000       1.00800           0
     12420 TIP3     1282     TIP3     OH2      OT      -0.834000       15.9994           0
     12421 TIP3     1282     TIP3     H1       HT       0.417000       1.00800           0
     12422 TIP3     1282     TIP3     H2       HT       0.417000       1.00800           0
     12423 TIP3     1283     TIP3     OH2      OT      -0.834000       15.9994           0
     12424 TIP3     1283     TIP3     H1       HT       0.417000       1.00800           0
     12425 TIP3     1283     TIP3     H2       HT       0.417000       1.00800           0
     12426 TIP3     1284     TIP3     OH2      OT      -0.834000       15.9994           0
     12427 TIP3     1284     TIP3     H1       HT       0.417000       1.00800           0
     12428 TIP3     1284     TIP3     H2       HT       0.417000       1.00800           0
     12429 TIP3     1285     TIP3     OH2      OT      -0.834000       15.9994           0
     12430 TIP3     1285     TIP3     H1       HT       0.417000       1.00800           0
     12431 TIP3     1285     TIP3     H2       HT       0.417000       1.00800           0
     12432 TIP3     1286     TIP3     OH2      OT      -0.834000       15.9994           0
     12433 TIP3     1286     TIP3     H1       HT       0.417000       1.00800           0
     12434 TIP3     1286     TIP3     H2       HT       0.417000       1.00800           0
     12435 TIP3     1287     TIP3     OH2      OT      -0.834000       15.9994           0
     12436 TIP3     1287     TIP3     H1       HT       0.417000       1.00800           0
     12437 TIP3     1287     TIP3     H2       HT       0.417000       1.00800           0
     12438 TIP3     1288     TIP3     OH2      OT      -0.834000       15.9994           0
     12439 TIP3     1288     TIP3     H1       HT       0.417000       1.00800           0
     12440 TIP3     1288     TIP3     H2       HT       0.417000       1.00800           0
     12441 TIP3     1289     TIP3     OH2      OT      -0.834000       15.9994           0
     12442 TIP3     1289     TIP3     H1       HT       0.417000       1.00800           0
     12443 TIP3     1289     TIP3     H2       HT       0.417000       1.00800           0
     12444 TIP3     1290     TIP3     OH2      OT      -0.834000       15.9994           0
     12445 TIP3     1290     TIP3     H1       HT       0.417000       1.00800           0
     12446 TIP3     1290     TIP3     H2       HT       0.417000       1.00800           0
     12447 TIP3     1291     TIP3     OH2      OT      -0.834000       15.9994           0
     12448 TIP3     1291     TIP3     H1       HT       0.417000       1.00800           0
     12449 TIP3     1291     TIP3     H2       HT       0.417000       1.00800           0
     12450 TIP3     1292     TIP3     OH2      OT      -0.834000       15.9994           0
     12451 TIP3     1292     TIP3     H1       HT       0.417000       1.00800           0
     12452 TIP3     1292     TIP3     H2       HT       0.417000       1.00800           0
     12453 TIP3     1293     TIP3     OH2      OT      -0.834000       15.9994           0
     12454 TIP3     1293     TIP3     H1       HT       0.417000       1.00800           0
     12455 TIP3     1293     TIP3     H2       HT       0.417000       1.00800           0
     12456 TIP3     1294     TIP3     OH2      OT      -0.834000       15.9994           0
     12457 TIP3     1294     TIP3     H1       HT       0.417000       1.00800           0
     12458 TIP3     1294     TIP3     H2       HT       0.417000       1.00800           0
     12459 TIP3     1295     TIP3     OH2      OT      -0.834000       15.9994           0
     12460 TIP3     1295     TIP3     H1       HT       0.417000       1.00800           0
     12461 TIP3     1295     TIP3     H2       HT       0.417000       1.00800           0
     12462 TIP3     1296     TIP3     OH2      OT      -0.834000       15.9994           0
     12463 TIP3     1296     TIP3     H1       HT       0.417000       1.00800           0
     12464 TIP3     1296     TIP3     H2       HT       0.417000       1.00800           0
     12465 TIP3     1297     TIP3     OH2      OT      -0.834000       15.9994           0
     12466 TIP3     1297     TIP3     H1       HT       0.417000       1.00800           0
     12467 TIP3     1297     TIP3     H2       HT       0.417000       1.00800           0
     12468 TIP3     1298     TIP3     OH2      OT      -0.834000       15.9994           0
     12469 TIP3     1298     TIP3     H1       HT       0.417000       1.00800           0
     12470 TIP3     1298     TIP3     H2       HT       0.417000       1.00800           0
     12471 TIP3     1299     TIP3     OH2      OT      -0.834000       15.9994           0
     12472 TIP3     1299     TIP3     H1       HT       0.417000       1.00800           0
     12473 TIP3     1299     TIP3     H2       HT       0.417000       1.00800           0
     12474 TIP3     1300     TIP3     OH2      OT      -0.834000       15.9994           0
     12475 TIP3     1300     TIP3     H1       HT       0.417000       1.00800           0
     12476 TIP3     1300     TIP3     H2       HT       0.417000       1.00800           0
     12477 TIP3     1301     TIP3     OH2      OT      -0.834000       15.9994           0
     12478 TIP3     1301     TIP3     H1       HT       0.417000       1.00800           0
     12479 TIP3     1301     TIP3     H2       HT       0.417000       1.00800           0
     12480 TIP3     1302     TIP3     OH2      OT      -0.834000       15.9994           0
     12481 TIP3     1302     TIP3     H1       HT       0.417000       1.00800           0
     12482 TIP3     1302     TIP3     H2       HT       0.417000       1.00800           0
     12483 TIP3     1303     TIP3     OH2      OT      -0.834000       15.9994           0
     12484 TIP3     1303     TIP3     H1       HT       0.417000       1.00800           0
     12485 TIP3     1303     TIP3     H2       HT       0.417000       1.00800           0
     12486 TIP3     1304     TIP3     OH2      OT      -0.834000       15.9994           0
     12487 TIP3     1304     TIP3     H1       HT       0.417000       1.00800           0
     12488 TIP3     1304     TIP3     H2       HT       0.417000       1.00800           0
     12489 TIP3     1305     TIP3     OH2      OT      -0.834000       15.9994           0
     12490 TIP3     1305     TIP3     H1       HT       0.417000       1.00800           0
     12491 TIP3     1305     TIP3     H2       HT       0.417000       1.00800           0
     12492 TIP3     1306     TIP3     OH2      OT      -0.834000       15.9994           0
     12493 TIP3     1306     TIP3     H1       HT       0.417000       1.00800           0
     12494 TIP3     1306     TIP3     H2       HT       0.417000       1.00800           0
     12495 TIP3     1307     TIP3     OH2      OT      -0.834000       15.9994           0
     12496 TIP3     1307     TIP3     H1       HT       0.417000       1.00800           0
     12497 TIP3     1307     TIP3     H2       HT       0.417000       1.00800           0
     12498 TIP3     1308     TIP3     OH2      OT      -0.834000       15.9994           0
     12499 TIP3     1308     TIP3     H1       HT       0.417000       1.00800           0
     12500 TIP3     1308     TIP3     H2       HT       0.417000       1.00800           0
     12501 TIP3     1309     TIP3     OH2      OT      -0.834000       15.9994           0
     12502 TIP3     1309     TIP3     H1       HT       0.417000       1.00800           0
     12503 TIP3     1309     TIP3     H2       HT       0.417000       1.00800           0
     12504 TIP3     1310     TIP3     OH2      OT      -0.834000       15.9994           0
     12505 TIP3     1310     TIP3     H1       HT       0.417000       1.00800           0
     12506 TIP3     1310     TIP3     H2       HT       0.417000       1.00800           0
     12507 TIP3     1311     TIP3     OH2      OT      -0.834000       15.9994           0
     12508 TIP3     1311     TIP3     H1       HT       0.417000       1.00800           0
     12509 TIP3     1311     TIP3     H2       HT       0.417000       1.00800           0
     12510 TIP3     1312     TIP3     OH2      OT      -0.834000       15.9994           0
     12511 TIP3     1312     TIP3     H1       HT       0.417000       1.00800           0
     12512 TIP3     1312     TIP3     H2       HT       0.417000       1.00800           0
     12513 TIP3     1313     TIP3     OH2      OT      -0.834000       15.9994           0
     12514 TIP3     1313     TIP3     H1       HT       0.417000       1.00800           0
     12515 TIP3     1313     TIP3     H2       HT       0.417000       1.00800           0
     12516 TIP3     1314     TIP3     OH2      OT      -0.834000       15.9994           0
     12517 TIP3     1314     TIP3     H1       HT       0.417000       1.00800           0
     12518 TIP3     1314     TIP3     H2       HT       0.417000       1.00800           0
     12519 TIP3     1315     TIP3     OH2      OT      -0.834000       15.9994           0
     12520 TIP3     1315     TIP3     H1       HT       0.417000       1.00800           0
     12521 TIP3     1315     TIP3     H2       HT       0.417000       1.00800           0
     12522 TIP3     1316     TIP3     OH2      OT      -0.834000       15.9994           0
     12523 TIP3     1316     TIP3     H1       HT       0.417000       1.00800           0
     12524 TIP3     1316     TIP3     H2       HT       0.417000       1.00800           0
     12525 TIP3     1317     TIP3     OH2      OT      -0.834000       15.9994           0
     12526 TIP3     1317     TIP3     H1       HT       0.417000       1.00800           0
     12527 TIP3     1317     TIP3     H2       HT       0.417000       1.00800           0
     12528 TIP3     1318     TIP3     OH2      OT      -0.834000       15.9994           0
     12529 TIP3     1318     TIP3     H1       HT       0.417000       1.00800           0
     12530 TIP3     1318     TIP3     H2       HT       0.417000       1.00800           0
     12531 TIP3     1319     TIP3     OH2      OT      -0.834000       15.9994           0
     12532 TIP3     1319     TIP3     H1       HT       0.417000       1.00800           0
     12533 TIP3     1319     TIP3     H2       HT       0.417000       1.00800           0
     12534 TIP3     1320     TIP3     OH2      OT      -0.834000       15.9994           0
     12535 TIP3     1320     TIP3     H1       HT       0.417000       1.00800           0
     12536 TIP3     1320     TIP3     H2       HT       0.417000       1.00800           0
     12537 TIP3     1321     TIP3     OH2      OT      -0.834000       15.9994           0
     12538 TIP3     1321     TIP3     H1       HT       0.417000       1.00800           0
     12539 TIP3     1321     TIP3     H2       HT       0.417000       1.00800           0
     12540 TIP3     1322     TIP3     OH2      OT      -0.834000       15.9994           0
     12541 TIP3     1322     TIP3     H1       HT       0.417000       1.00800           0
     12542 TIP3     1322     TIP3     H2       HT       0.417000       1.00800           0
     12543 TIP3     1323     TIP3     OH2      OT      -0.834000       15.9994           0
     12544 TIP3     1323     TIP3     H1       HT       0.417000       1.00800           0
     12545 TIP3     1323     TIP3     H2       HT       0.417000       1.00800           0
     12546 TIP3     1324     TIP3     OH2      OT      -0.834000       15.9994           0
     12547 TIP3     1324     TIP3     H1       HT       0.417000       1.00800           0
     12548 TIP3     1324     TIP3     H2       HT       0.417000       1.00800           0
     12549 TIP3     1325     TIP3     OH2      OT      -0.834000       15.9994           0
     12550 TIP3     1325     TIP3     H1       HT       0.417000       1.00800           0
     12551 TIP3     1325     TIP3     H2       HT       0.417000       1.00800           0
     12552 TIP3     1326     TIP3     OH2      OT      -0.834000       15.9994           0
     12553 TIP3     1326     TIP3     H1       HT       0.417000       1.00800           0
     12554 TIP3     1326     TIP3     H2       HT       0.417000       1.00800           0
     12555 TIP3     1327     TIP3     OH2      OT      -0.834000       15.9994           0
     12556 TIP3     1327     TIP3     H1       HT       0.417000       1.00800           0
     12557 TIP3     1327     TIP3     H2       HT       0.417000       1.00800           0
     12558 TIP3     1328     TIP3     OH2      OT      -0.834000       15.9994           0
     12559 TIP3     1328     TIP3     H1       HT       0.417000       1.00800           0
     12560 TIP3     1328     TIP3     H2       HT       0.417000       1.00800           0
     12561 TIP3     1329     TIP3     OH2      OT      -0.834000       15.9994           0
     12562 TIP3     1329     TIP3     H1       HT       0.417000       1.00800           0
     12563 TIP3     1329     TIP3     H2       HT       0.417000       1.00800           0
     12564 TIP3     1330     TIP3     OH2      OT      -0.834000       15.9994           0
     12565 TIP3     1330     TIP3     H1       HT       0.417000       1.00800           0
     12566 TIP3     1330     TIP3     H2       HT       0.417000       1.00800           0
     12567 TIP3     1331     TIP3     OH2      OT      -0.834000       15.9994           0
     12568 TIP3     1331     TIP3     H1       HT       0.417000       1.00800           0
     12569 TIP3     1331     TIP3     H2       HT       0.417000       1.00800           0
     12570 TIP3     1332     TIP3     OH2      OT      -0.834000       15.9994           0
     12571 TIP3     1332     TIP3     H1       HT       0.417000       1.00800           0
     12572 TIP3     1332     TIP3     H2       HT       0.417000       1.00800           0
     12573 TIP3     1333     TIP3     OH2      OT      -0.834000       15.9994           0
     12574 TIP3     1333     TIP3     H1       HT       0.417000       1.00800           0
     12575 TIP3     1333     TIP3     H2       HT       0.417000       1.00800           0
     12576 TIP3     1334     TIP3     OH2      OT      -0.834000       15.9994           0
     12577 TIP3     1334     TIP3     H1       HT       0.417000       1.00800           0
     12578 TIP3     1334     TIP3     H2       HT       0.417000       1.00800           0
     12579 TIP3     1335     TIP3     OH2      OT      -0.834000       15.9994           0
     12580 TIP3     1335     TIP3     H1       HT       0.417000       1.00800           0
     12581 TIP3     1335     TIP3     H2       HT       0.417000       1.00800           0
     12582 TIP3     1336     TIP3     OH2      OT      -0.834000       15.9994           0
     12583 TIP3     1336     TIP3     H1       HT       0.417000       1.00800           0
     12584 TIP3     1336     TIP3     H2       HT       0.417000       1.00800           0
     12585 TIP3     1337     TIP3     OH2      OT      -0.834000       15.9994           0
     12586 TIP3     1337     TIP3     H1       HT       0.417000       1.00800           0
     12587 TIP3     1337     TIP3     H2       HT       0.417000       1.00800           0
     12588 TIP3     1338     TIP3     OH2      OT      -0.834000       15.9994           0
     12589 TIP3     1338     TIP3     H1       HT       0.417000       1.00800           0
     12590 TIP3     1338     TIP3     H2       HT       0.417000       1.00800           0
     12591 TIP3     1339     TIP3     OH2      OT      -0.834000       15.9994           0
     12592 TIP3     1339     TIP3     H1       HT       0.417000       1.00800           0
     12593 TIP3     1339     TIP3     H2       HT       0.417000       1.00800           0
     12594 TIP3     1340     TIP3     OH2      OT      -0.834000       15.9994           0
     12595 TIP3     1340     TIP3     H1       HT       0.417000       1.00800           0
     12596 TIP3     1340     TIP3     H2       HT       0.417000       1.00800           0
     12597 TIP3     1341     TIP3     OH2      OT      -0.834000       15.9994           0
     12598 TIP3     1341     TIP3     H1       HT       0.417000       1.00800           0
     12599 TIP3     1341     TIP3     H2       HT       0.417000       1.00800           0
     12600 TIP3     1342     TIP3     OH2      OT      -0.834000       15.9994           0
     12601 TIP3     1342     TIP3     H1       HT       0.417000       1.00800           0
     12602 TIP3     1342     TIP3     H2       HT       0.417000       1.00800           0
     12603 TIP3     1343     TIP3     OH2      OT      -0.834000       15.9994           0
     12604 TIP3     1343     TIP3     H1       HT       0.417000       1.00800           0
     12605 TIP3     1343     TIP3     H2       HT       0.417000       1.00800           0
     12606 TIP3     1344     TIP3     OH2      OT      -0.834000       15.9994           0
     12607 TIP3     1344     TIP3     H1       HT       0.417000       1.00800           0
     12608 TIP3     1344     TIP3     H2       HT       0.417000       1.00800           0
     12609 TIP3     1345     TIP3     OH2      OT      -0.834000       15.9994           0
     12610 TIP3     1345     TIP3     H1       HT       0.417000       1.00800           0
     12611 TIP3     1345     TIP3     H2       HT       0.417000       1.00800           0
     12612 TIP3     1346     TIP3     OH2      OT      -0.834000       15.9994           0
     12613 TIP3     1346     TIP3     H1       HT       0.417000       1.00800           0
     12614 TIP3     1346     TIP3     H2       HT       0.417000       1.00800           0
     12615 TIP3     1347     TIP3     OH2      OT      -0.834000       15.9994           0
     12616 TIP3     1347     TIP3     H1       HT       0.417000       1.00800           0
     12617 TIP3     1347     TIP3     H2       HT       0.417000       1.00800           0
     12618 TIP3     1348     TIP3     OH2      OT      -0.834000       15.9994           0
     12619 TIP3     1348     TIP3     H1       HT       0.417000       1.00800           0
     12620 TIP3     1348     TIP3     H2       HT       0.417000       1.00800           0
     12621 TIP3     1349     TIP3     OH2      OT      -0.834000       15.9994           0
     12622 TIP3     1349     TIP3     H1       HT       0.417000       1.00800           0
     12623 TIP3     1349     TIP3     H2       HT       0.417000       1.00800           0
     12624 TIP3     1350     TIP3     OH2      OT      -0.834000       15.9994           0
     12625 TIP3     1350     TIP3     H1       HT       0.417000       1.00800           0
     12626 TIP3     1350     TIP3     H2       HT       0.417000       1.00800           0
     12627 TIP3     1351     TIP3     OH2      OT      -0.834000       15.9994           0
     12628 TIP3     1351     TIP3     H1       HT       0.417000       1.00800           0
     12629 TIP3     1351     TIP3     H2       HT       0.417000       1.00800           0
     12630 TIP3     1352     TIP3     OH2      OT      -0.834000       15.9994           0
     12631 TIP3     1352     TIP3     H1       HT       0.417000       1.00800           0
     12632 TIP3     1352     TIP3     H2       HT       0.417000       1.00800           0
     12633 TIP3     1353     TIP3     OH2      OT      -0.834000       15.9994           0
     12634 TIP3     1353     TIP3     H1       HT       0.417000       1.00800           0
     12635 TIP3     1353     TIP3     H2       HT       0.417000       1.00800           0
     12636 TIP3     1354     TIP3     OH2      OT      -0.834000       15.9994           0
     12637 TIP3     1354     TIP3     H1       HT       0.417000       1.00800           0
     12638 TIP3     1354     TIP3     H2       HT       0.417000       1.00800           0
     12639 TIP3     1355     TIP3     OH2      OT      -0.834000       15.9994           0
     12640 TIP3     1355     TIP3     H1       HT       0.417000       1.00800           0
     12641 TIP3     1355     TIP3     H2       HT       0.417000       1.00800           0
     12642 TIP3     1356     TIP3     OH2      OT      -0.834000       15.9994           0
     12643 TIP3     1356     TIP3     H1       HT       0.417000       1.00800           0
     12644 TIP3     1356     TIP3     H2       HT       0.417000       1.00800           0
     12645 TIP3     1357     TIP3     OH2      OT      -0.834000       15.9994           0
     12646 TIP3     1357     TIP3     H1       HT       0.417000       1.00800           0
     12647 TIP3     1357     TIP3     H2       HT       0.417000       1.00800           0
     12648 TIP3     1358     TIP3     OH2      OT      -0.834000       15.9994           0
     12649 TIP3     1358     TIP3     H1       HT       0.417000       1.00800           0
     12650 TIP3     1358     TIP3     H2       HT       0.417000       1.00800           0
     12651 TIP3     1359     TIP3     OH2      OT      -0.834000       15.9994           0
     12652 TIP3     1359     TIP3     H1       HT       0.417000       1.00800           0
     12653 TIP3     1359     TIP3     H2       HT       0.417000       1.00800           0
     12654 TIP3     1360     TIP3     OH2      OT      -0.834000       15.9994           0
     12655 TIP3     1360     TIP3     H1       HT       0.417000       1.00800           0
     12656 TIP3     1360     TIP3     H2       HT       0.417000       1.00800           0
     12657 TIP3     1361     TIP3     OH2      OT      -0.834000       15.9994           0
     12658 TIP3     1361     TIP3     H1       HT       0.417000       1.00800           0
     12659 TIP3     1361     TIP3     H2       HT       0.417000       1.00800           0
     12660 TIP3     1362     TIP3     OH2      OT      -0.834000       15.9994           0
     12661 TIP3     1362     TIP3     H1       HT       0.417000       1.00800           0
     12662 TIP3     1362     TIP3     H2       HT       0.417000       1.00800           0
     12663 TIP3     1363     TIP3     OH2      OT      -0.834000       15.9994           0
     12664 TIP3     1363     TIP3     H1       HT       0.417000       1.00800           0
     12665 TIP3     1363     TIP3     H2       HT       0.417000       1.00800           0
     12666 TIP3     1364     TIP3     OH2      OT      -0.834000       15.9994           0
     12667 TIP3     1364     TIP3     H1       HT       0.417000       1.00800           0
     12668 TIP3     1364     TIP3     H2       HT       0.417000       1.00800           0
     12669 TIP3     1365     TIP3     OH2      OT      -0.834000       15.9994           0
     12670 TIP3     1365     TIP3     H1       HT       0.417000       1.00800           0
     12671 TIP3     1365     TIP3     H2       HT       0.417000       1.00800           0
     12672 TIP3     1366     TIP3     OH2      OT      -0.834000       15.9994           0
     12673 TIP3     1366     TIP3     H1       HT       0.417000       1.00800           0
     12674 TIP3     1366     TIP3     H2       HT       0.417000       1.00800           0
     12675 TIP3     1367     TIP3     OH2      OT      -0.834000       15.9994           0
     12676 TIP3     1367     TIP3     H1       HT       0.417000       1.00800           0
     12677 TIP3     1367     TIP3     H2       HT       0.417000       1.00800           0
     12678 TIP3     1368     TIP3     OH2      OT      -0.834000       15.9994           0
     12679 TIP3     1368     TIP3     H1       HT       0.417000       1.00800           0
     12680 TIP3     1368     TIP3     H2       HT       0.417000       1.00800           0
     12681 TIP3     1369     TIP3     OH2      OT      -0.834000       15.9994           0
     12682 TIP3     1369     TIP3     H1       HT       0.417000       1.00800           0
     12683 TIP3     1369     TIP3     H2       HT       0.417000       1.00800           0
     12684 TIP3     1370     TIP3     OH2      OT      -0.834000       15.9994           0
     12685 TIP3     1370     TIP3     H1       HT       0.417000       1.00800           0
     12686 TIP3     1370     TIP3     H2       HT       0.417000       1.00800           0
     12687 TIP3     1371     TIP3     OH2      OT      -0.834000       15.9994           0
     12688 TIP3     1371     TIP3     H1       HT       0.417000       1.00800           0
     12689 TIP3     1371     TIP3     H2       HT       0.417000       1.00800           0
     12690 TIP3     1372     TIP3     OH2      OT      -0.834000       15.9994           0
     12691 TIP3     1372     TIP3     H1       HT       0.417000       1.00800           0
     12692 TIP3     1372     TIP3     H2       HT       0.417000       1.00800           0
     12693 TIP3     1373     TIP3     OH2      OT      -0.834000       15.9994           0
     12694 TIP3     1373     TIP3     H1       HT       0.417000       1.00800           0
     12695 TIP3     1373     TIP3     H2       HT       0.417000       1.00800           0
     12696 TIP3     1374     TIP3     OH2      OT      -0.834000       15.9994           0
     12697 TIP3     1374     TIP3     H1       HT       0.417000       1.00800           0
     12698 TIP3     1374     TIP3     H2       HT       0.417000       1.00800           0
     12699 TIP3     1375     TIP3     OH2      OT      -0.834000       15.9994           0
     12700 TIP3     1375     TIP3     H1       HT       0.417000       1.00800           0
     12701 TIP3     1375     TIP3     H2       HT       0.417000       1.00800           0
     12702 TIP3     1376     TIP3     OH2      OT      -0.834000       15.9994           0
     12703 TIP3     1376     TIP3     H1       HT       0.417000       1.00800           0
     12704 TIP3     1376     TIP3     H2       HT       0.417000       1.00800           0
     12705 TIP3     1377     TIP3     OH2      OT      -0.834000       15.9994           0
     12706 TIP3     1377     TIP3     H1       HT       0.417000       1.00800           0
     12707 TIP3     1377     TIP3     H2       HT       0.417000       1.00800           0
     12708 TIP3     1378     TIP3     OH2      OT      -0.834000       15.9994           0
     12709 TIP3     1378     TIP3     H1       HT       0.417000       1.00800           0
     12710 TIP3     1378     TIP3     H2       HT       0.417000       1.00800           0
     12711 TIP3     1379     TIP3     OH2      OT      -0.834000       15.9994           0
     12712 TIP3     1379     TIP3     H1       HT       0.417000       1.00800           0
     12713 TIP3     1379     TIP3     H2       HT       0.417000       1.00800           0
     12714 TIP3     1380     TIP3     OH2      OT      -0.834000       15.9994           0
     12715 TIP3     1380     TIP3     H1       HT       0.417000       1.00800           0
     12716 TIP3     1380     TIP3     H2       HT       0.417000       1.00800           0
     12717 TIP3     1381     TIP3     OH2      OT      -0.834000       15.9994           0
     12718 TIP3     1381     TIP3     H1       HT       0.417000       1.00800           0
     12719 TIP3     1381     TIP3     H2       HT       0.417000       1.00800           0
     12720 TIP3     1382     TIP3     OH2      OT      -0.834000       15.9994           0
     12721 TIP3     1382     TIP3     H1       HT       0.417000       1.00800           0
     12722 TIP3     1382     TIP3     H2       HT       0.417000       1.00800           0
     12723 TIP3     1383     TIP3     OH2      OT      -0.834000       15.9994           0
     12724 TIP3     1383     TIP3     H1       HT       0.417000       1.00800           0
     12725 TIP3     1383     TIP3     H2       HT       0.417000       1.00800           0
     12726 TIP3     1384     TIP3     OH2      OT      -0.834000       15.9994           0
     12727 TIP3     1384     TIP3     H1       HT       0.417000       1.00800           0
     12728 TIP3     1384     TIP3     H2       HT       0.417000       1.00800           0
     12729 TIP3     1385     TIP3     OH2      OT      -0.834000       15.9994           0
     12730 TIP3     1385     TIP3     H1       HT       0.417000       1.00800           0
     12731 TIP3     1385     TIP3     H2       HT       0.417000       1.00800           0
     12732 TIP3     1386     TIP3     OH2      OT      -0.834000       15.9994           0
     12733 TIP3     1386     TIP3     H1       HT       0.417000       1.00800           0
     12734 TIP3     1386     TIP3     H2       HT       0.417000       1.00800           0
     12735 TIP3     1387     TIP3     OH2      OT      -0.834000       15.9994           0
     12736 TIP3     1387     TIP3     H1       HT       0.417000       1.00800           0
     12737 TIP3     1387     TIP3     H2       HT       0.417000       1.00800           0
     12738 TIP3     1388     TIP3     OH2      OT      -0.834000       15.9994           0
     12739 TIP3     1388     TIP3     H1       HT       0.417000       1.00800           0
     12740 TIP3     1388     TIP3     H2       HT       0.417000       1.00800           0
     12741 TIP3     1389     TIP3     OH2      OT      -0.834000       15.9994           0
     12742 TIP3     1389     TIP3     H1       HT       0.417000       1.00800           0
     12743 TIP3     1389     TIP3     H2       HT       0.417000       1.00800           0
     12744 TIP3     1390     TIP3     OH2      OT      -0.834000       15.9994           0
     12745 TIP3     1390     TIP3     H1       HT       0.417000       1.00800           0
     12746 TIP3     1390     TIP3     H2       HT       0.417000       1.00800           0
     12747 TIP3     1391     TIP3     OH2      OT      -0.834000       15.9994           0
     12748 TIP3     1391     TIP3     H1       HT       0.417000       1.00800           0
     12749 TIP3     1391     TIP3     H2       HT       0.417000       1.00800           0
     12750 TIP3     1392     TIP3     OH2      OT      -0.834000       15.9994           0
     12751 TIP3     1392     TIP3     H1       HT       0.417000       1.00800           0
     12752 TIP3     1392     TIP3     H2       HT       0.417000       1.00800           0
     12753 TIP3     1393     TIP3     OH2      OT      -0.834000       15.9994           0
     12754 TIP3     1393     TIP3     H1       HT       0.417000       1.00800           0
     12755 TIP3     1393     TIP3     H2       HT       0.417000       1.00800           0
     12756 TIP3     1394     TIP3     OH2      OT      -0.834000       15.9994           0
     12757 TIP3     1394     TIP3     H1       HT       0.417000       1.00800           0
     12758 TIP3     1394     TIP3     H2       HT       0.417000       1.00800           0
     12759 TIP3     1395     TIP3     OH2      OT      -0.834000       15.9994           0
     12760 TIP3     1395     TIP3     H1       HT       0.417000       1.00800           0
     12761 TIP3     1395     TIP3     H2       HT       0.417000       1.00800           0
     12762 TIP3     1396     TIP3     OH2      OT      -0.834000       15.9994           0
     12763 TIP3     1396     TIP3     H1       HT       0.417000       1.00800           0
     12764 TIP3     1396     TIP3     H2       HT       0.417000       1.00800           0
     12765 TIP3     1397     TIP3     OH2      OT      -0.834000       15.9994           0
     12766 TIP3     1397     TIP3     H1       HT       0.417000       1.00800           0
     12767 TIP3     1397     TIP3     H2       HT       0.417000       1.00800           0
     12768 TIP3     1398     TIP3     OH2      OT      -0.834000       15.9994           0
     12769 TIP3     1398     TIP3     H1       HT       0.417000       1.00800           0
     12770 TIP3     1398     TIP3     H2       HT       0.417000       1.00800           0
     12771 TIP3     1399     TIP3     OH2      OT      -0.834000       15.9994           0
     12772 TIP3     1399     TIP3     H1       HT       0.417000       1.00800           0
     12773 TIP3     1399     TIP3     H2       HT       0.417000       1.00800           0
     12774 TIP3     1400     TIP3     OH2      OT      -0.834000       15.9994           0
     12775 TIP3     1400     TIP3     H1       HT       0.417000       1.00800           0
     12776 TIP3     1400     TIP3     H2       HT       0.417000       1.00800           0
     12777 TIP3     1401     TIP3     OH2      OT      -0.834000       15.9994           0
     12778 TIP3     1401     TIP3     H1       HT       0.417000       1.00800           0
     12779 TIP3     1401     TIP3     H2       HT       0.417000       1.00800           0
     12780 TIP3     1402     TIP3     OH2      OT      -0.834000       15.9994           0
     12781 TIP3     1402     TIP3     H1       HT       0.417000       1.00800           0
     12782 TIP3     1402     TIP3     H2       HT       0.417000       1.00800           0
     12783 TIP3     1403     TIP3     OH2      OT      -0.834000       15.9994           0
     12784 TIP3     1403     TIP3     H1       HT       0.417000       1.00800           0
     12785 TIP3     1403     TIP3     H2       HT       0.417000       1.00800           0
     12786 TIP3     1404     TIP3     OH2      OT      -0.834000       15.9994           0
     12787 TIP3     1404     TIP3     H1       HT       0.417000       1.00800           0
     12788 TIP3     1404     TIP3     H2       HT       0.417000       1.00800           0
     12789 TIP3     1405     TIP3     OH2      OT      -0.834000       15.9994           0
     12790 TIP3     1405     TIP3     H1       HT       0.417000       1.00800           0
     12791 TIP3     1405     TIP3     H2       HT       0.417000       1.00800           0
     12792 TIP3     1406     TIP3     OH2      OT      -0.834000       15.9994           0
     12793 TIP3     1406     TIP3     H1       HT       0.417000       1.00800           0
     12794 TIP3     1406     TIP3     H2       HT       0.417000       1.00800           0
     12795 TIP3     1407     TIP3     OH2      OT      -0.834000       15.9994           0
     12796 TIP3     1407     TIP3     H1       HT       0.417000       1.00800           0
     12797 TIP3     1407     TIP3     H2       HT       0.417000       1.00800           0
     12798 TIP3     1408     TIP3     OH2      OT      -0.834000       15.9994           0
     12799 TIP3     1408     TIP3     H1       HT       0.417000       1.00800           0
     12800 TIP3     1408     TIP3     H2       HT       0.417000       1.00800           0
     12801 TIP3     1409     TIP3     OH2      OT      -0.834000       15.9994           0
     12802 TIP3     1409     TIP3     H1       HT       0.417000       1.00800           0
     12803 TIP3     1409     TIP3     H2       HT       0.417000       1.00800           0
     12804 TIP3     1410     TIP3     OH2      OT      -0.834000       15.9994           0
     12805 TIP3     1410     TIP3     H1       HT       0.417000       1.00800           0
     12806 TIP3     1410     TIP3     H2       HT       0.417000       1.00800           0
     12807 TIP3     1411     TIP3     OH2      OT      -0.834000       15.9994           0
     12808 TIP3     1411     TIP3     H1       HT       0.417000       1.00800           0
     12809 TIP3     1411     TIP3     H2       HT       0.417000       1.00800           0
     12810 TIP3     1412     TIP3     OH2      OT      -0.834000       15.9994           0
     12811 TIP3     1412     TIP3     H1       HT       0.417000       1.00800           0
     12812 TIP3     1412     TIP3     H2       HT       0.417000       1.00800           0
     12813 TIP3     1413     TIP3     OH2      OT      -0.834000       15.9994           0
     12814 TIP3     1413     TIP3     H1       HT       0.417000       1.00800           0
     12815 TIP3     1413     TIP3     H2       HT       0.417000       1.00800           0
     12816 TIP3     1414     TIP3     OH2      OT      -0.834000       15.9994           0
     12817 TIP3     1414     TIP3     H1       HT       0.417000       1.00800           0
     12818 TIP3     1414     TIP3     H2       HT       0.417000       1.00800           0
     12819 TIP3     1415     TIP3     OH2      OT      -0.834000       15.9994           0
     12820 TIP3     1415     TIP3     H1       HT       0.417000       1.00800           0
     12821 TIP3     1415     TIP3     H2       HT       0.417000       1.00800           0
     12822 TIP3     1416     TIP3     OH2      OT      -0.834000       15.9994           0
     12823 TIP3     1416     TIP3     H1       HT       0.417000       1.00800           0
     12824 TIP3     1416     TIP3     H2       HT       0.417000       1.00800           0
     12825 TIP3     1417     TIP3     OH2      OT      -0.834000       15.9994           0
     12826 TIP3     1417     TIP3     H1       HT       0.417000       1.00800           0
     12827 TIP3     1417     TIP3     H2       HT       0.417000       1.00800           0
     12828 TIP3     1418     TIP3     OH2      OT      -0.834000       15.9994           0
     12829 TIP3     1418     TIP3     H1       HT       0.417000       1.00800           0
     12830 TIP3     1418     TIP3     H2       HT       0.417000       1.00800           0
     12831 TIP3     1419     TIP3     OH2      OT      -0.834000       15.9994           0
     12832 TIP3     1419     TIP3     H1       HT       0.417000       1.00800           0
     12833 TIP3     1419     TIP3     H2       HT       0.417000       1.00800           0
     12834 TIP3     1420     TIP3     OH2      OT      -0.834000       15.9994           0
     12835 TIP3     1420     TIP3     H1       HT       0.417000       1.00800           0
     12836 TIP3     1420     TIP3     H2       HT       0.417000       1.00800           0
     12837 TIP3     1421     TIP3     OH2      OT      -0.834000       15.9994           0
     12838 TIP3     1421     TIP3     H1       HT       0.417000       1.00800           0
     12839 TIP3     1421     TIP3     H2       HT       0.417000       1.00800           0
     12840 TIP3     1422     TIP3     OH2      OT      -0.834000       15.9994           0
     12841 TIP3     1422     TIP3     H1       HT       0.417000       1.00800           0
     12842 TIP3     1422     TIP3     H2       HT       0.417000       1.00800           0
     12843 TIP3     1423     TIP3     OH2      OT      -0.834000       15.9994           0
     12844 TIP3     1423     TIP3     H1       HT       0.417000       1.00800           0
     12845 TIP3     1423     TIP3     H2       HT       0.417000       1.00800           0
     12846 TIP3     1424     TIP3     OH2      OT      -0.834000       15.9994           0
     12847 TIP3     1424     TIP3     H1       HT       0.417000       1.00800           0
     12848 TIP3     1424     TIP3     H2       HT       0.417000       1.00800           0
     12849 TIP3     1425     TIP3     OH2      OT      -0.834000       15.9994           0
     12850 TIP3     1425     TIP3     H1       HT       0.417000       1.00800           0
     12851 TIP3     1425     TIP3     H2       HT       0.417000       1.00800           0
     12852 TIP3     1426     TIP3     OH2      OT      -0.834000       15.9994           0
     12853 TIP3     1426     TIP3     H1       HT       0.417000       1.00800           0
     12854 TIP3     1426     TIP3     H2       HT       0.417000       1.00800           0
     12855 TIP3     1427     TIP3     OH2      OT      -0.834000       15.9994           0
     12856 TIP3     1427     TIP3     H1       HT       0.417000       1.00800           0
     12857 TIP3     1427     TIP3     H2       HT       0.417000       1.00800           0
     12858 TIP3     1428     TIP3     OH2      OT      -0.834000       15.9994           0
     12859 TIP3     1428     TIP3     H1       HT       0.417000       1.00800           0
     12860 TIP3     1428     TIP3     H2       HT       0.417000       1.00800           0
     12861 TIP3     1429     TIP3     OH2      OT      -0.834000       15.9994           0
     12862 TIP3     1429     TIP3     H1       HT       0.417000       1.00800           0
     12863 TIP3     1429     TIP3     H2       HT       0.417000       1.00800           0
     12864 TIP3     1430     TIP3     OH2      OT      -0.834000       15.9994           0
     12865 TIP3     1430     TIP3     H1       HT       0.417000       1.00800           0
     12866 TIP3     1430     TIP3     H2       HT       0.417000       1.00800           0
     12867 TIP3     1431     TIP3     OH2      OT      -0.834000       15.9994           0
     12868 TIP3     1431     TIP3     H1       HT       0.417000       1.00800           0
     12869 TIP3     1431     TIP3     H2       HT       0.417000       1.00800           0
     12870 TIP3     1432     TIP3     OH2      OT      -0.834000       15.9994           0
     12871 TIP3     1432     TIP3     H1       HT       0.417000       1.00800           0
     12872 TIP3     1432     TIP3     H2       HT       0.417000       1.00800           0
     12873 TIP3     1433     TIP3     OH2      OT      -0.834000       15.9994           0
     12874 TIP3     1433     TIP3     H1       HT       0.417000       1.00800           0
     12875 TIP3     1433     TIP3     H2       HT       0.417000       1.00800           0
     12876 TIP3     1434     TIP3     OH2      OT      -0.834000       15.9994           0
     12877 TIP3     1434     TIP3     H1       HT       0.417000       1.00800           0
     12878 TIP3     1434     TIP3     H2       HT       0.417000       1.00800           0
     12879 TIP3     1435     TIP3     OH2      OT      -0.834000       15.9994           0
     12880 TIP3     1435     TIP3     H1       HT       0.417000       1.00800           0
     12881 TIP3     1435     TIP3     H2       HT       0.417000       1.00800           0
     12882 TIP3     1436     TIP3     OH2      OT      -0.834000       15.9994           0
     12883 TIP3     1436     TIP3     H1       HT       0.417000       1.00800           0
     12884 TIP3     1436     TIP3     H2       HT       0.417000       1.00800           0
     12885 TIP3     1437     TIP3     OH2      OT      -0.834000       15.9994           0
     12886 TIP3     1437     TIP3     H1       HT       0.417000       1.00800           0
     12887 TIP3     1437     TIP3     H2       HT       0.417000       1.00800           0
     12888 TIP3     1438     TIP3     OH2      OT      -0.834000       15.9994           0
     12889 TIP3     1438     TIP3     H1       HT       0.417000       1.00800           0
     12890 TIP3     1438     TIP3     H2       HT       0.417000       1.00800           0
     12891 TIP3     1439     TIP3     OH2      OT      -0.834000       15.9994           0
     12892 TIP3     1439     TIP3     H1       HT       0.417000       1.00800           0
     12893 TIP3     1439     TIP3     H2       HT       0.417000       1.00800           0
     12894 TIP3     1440     TIP3     OH2      OT      -0.834000       15.9994           0
     12895 TIP3     1440     TIP3     H1       HT       0.417000       1.00800           0
     12896 TIP3     1440     TIP3     H2       HT       0.417000       1.00800           0
     12897 TIP3     1441     TIP3     OH2      OT      -0.834000       15.9994           0
     12898 TIP3     1441     TIP3     H1       HT       0.417000       1.00800           0
     12899 TIP3     1441     TIP3     H2       HT       0.417000       1.00800           0
     12900 TIP3     1442     TIP3     OH2      OT      -0.834000       15.9994           0
     12901 TIP3     1442     TIP3     H1       HT       0.417000       1.00800           0
     12902 TIP3     1442     TIP3     H2       HT       0.417000       1.00800           0
     12903 TIP3     1443     TIP3     OH2      OT      -0.834000       15.9994           0
     12904 TIP3     1443     TIP3     H1       HT       0.417000       1.00800           0
     12905 TIP3     1443     TIP3     H2       HT       0.417000       1.00800           0
     12906 TIP3     1444     TIP3     OH2      OT      -0.834000       15.9994           0
     12907 TIP3     1444     TIP3     H1       HT       0.417000       1.00800           0
     12908 TIP3     1444     TIP3     H2       HT       0.417000       1.00800           0
     12909 TIP3     1445     TIP3     OH2      OT      -0.834000       15.9994           0
     12910 TIP3     1445     TIP3     H1       HT       0.417000       1.00800           0
     12911 TIP3     1445     TIP3     H2       HT       0.417000       1.00800           0
     12912 TIP3     1446     TIP3     OH2      OT      -0.834000       15.9994           0
     12913 TIP3     1446     TIP3     H1       HT       0.417000       1.00800           0
     12914 TIP3     1446     TIP3     H2       HT       0.417000       1.00800           0
     12915 TIP3     1447     TIP3     OH2      OT      -0.834000       15.9994           0
     12916 TIP3     1447     TIP3     H1       HT       0.417000       1.00800           0
     12917 TIP3     1447     TIP3     H2       HT       0.417000       1.00800           0
     12918 TIP3     1448     TIP3     OH2      OT      -0.834000       15.9994           0
     12919 TIP3     1448     TIP3     H1       HT       0.417000       1.00800           0
     12920 TIP3     1448     TIP3     H2       HT       0.417000       1.00800           0
     12921 TIP3     1449     TIP3     OH2      OT      -0.834000       15.9994           0
     12922 TIP3     1449     TIP3     H1       HT       0.417000       1.00800           0
     12923 TIP3     1449     TIP3     H2       HT       0.417000       1.00800           0
     12924 TIP3     1450     TIP3     OH2      OT      -0.834000       15.9994           0
     12925 TIP3     1450     TIP3     H1       HT       0.417000       1.00800           0
     12926 TIP3     1450     TIP3     H2       HT       0.417000       1.00800           0
     12927 TIP3     1451     TIP3     OH2      OT      -0.834000       15.9994           0
     12928 TIP3     1451     TIP3     H1       HT       0.417000       1.00800           0
     12929 TIP3     1451     TIP3     H2       HT       0.417000       1.00800           0
     12930 TIP3     1452     TIP3     OH2      OT      -0.834000       15.9994           0
     12931 TIP3     1452     TIP3     H1       HT       0.417000       1.00800           0
     12932 TIP3     1452     TIP3     H2       HT       0.417000       1.00800           0
     12933 TIP3     1453     TIP3     OH2      OT      -0.834000       15.9994           0
     12934 TIP3     1453     TIP3     H1       HT       0.417000       1.00800           0
     12935 TIP3     1453     TIP3     H2       HT       0.417000       1.00800           0
     12936 TIP3     1454     TIP3     OH2      OT      -0.834000       15.9994           0
     12937 TIP3     1454     TIP3     H1       HT       0.417000       1.00800           0
     12938 TIP3     1454     TIP3     H2       HT       0.417000       1.00800           0
     12939 TIP3     1455     TIP3     OH2      OT      -0.834000       15.9994           0
     12940 TIP3     1455     TIP3     H1       HT       0.417000       1.00800           0
     12941 TIP3     1455     TIP3     H2       HT       0.417000       1.00800           0
     12942 TIP3     1456     TIP3     OH2      OT      -0.834000       15.9994           0
     12943 TIP3     1456     TIP3     H1       HT       0.417000       1.00800           0
     12944 TIP3     1456     TIP3     H2       HT       0.417000       1.00800           0
     12945 TIP3     1457     TIP3     OH2      OT      -0.834000       15.9994           0
     12946 TIP3     1457     TIP3     H1       HT       0.417000       1.00800           0
     12947 TIP3     1457     TIP3     H2       HT       0.417000       1.00800           0
     12948 TIP3     1458     TIP3     OH2      OT      -0.834000       15.9994           0
     12949 TIP3     1458     TIP3     H1       HT       0.417000       1.00800           0
     12950 TIP3     1458     TIP3     H2       HT       0.417000       1.00800           0
     12951 TIP3     1459     TIP3     OH2      OT      -0.834000       15.9994           0
     12952 TIP3     1459     TIP3     H1       HT       0.417000       1.00800           0
     12953 TIP3     1459     TIP3     H2       HT       0.417000       1.00800           0
     12954 TIP3     1460     TIP3     OH2      OT      -0.834000       15.9994           0
     12955 TIP3     1460     TIP3     H1       HT       0.417000       1.00800           0
     12956 TIP3     1460     TIP3     H2       HT       0.417000       1.00800           0
     12957 TIP3     1461     TIP3     OH2      OT      -0.834000       15.9994           0
     12958 TIP3     1461     TIP3     H1       HT       0.417000       1.00800           0
     12959 TIP3     1461     TIP3     H2       HT       0.417000       1.00800           0
     12960 TIP3     1462     TIP3     OH2      OT      -0.834000       15.9994           0
     12961 TIP3     1462     TIP3     H1       HT       0.417000       1.00800           0
     12962 TIP3     1462     TIP3     H2       HT       0.417000       1.00800           0
     12963 TIP3     1463     TIP3     OH2      OT      -0.834000       15.9994           0
     12964 TIP3     1463     TIP3     H1       HT       0.417000       1.00800           0
     12965 TIP3     1463     TIP3     H2       HT       0.417000       1.00800           0
     12966 TIP3     1464     TIP3     OH2      OT      -0.834000       15.9994           0
     12967 TIP3     1464     TIP3     H1       HT       0.417000       1.00800           0
     12968 TIP3     1464     TIP3     H2       HT       0.417000       1.00800           0
     12969 TIP3     1465     TIP3     OH2      OT      -0.834000       15.9994           0
     12970 TIP3     1465     TIP3     H1       HT       0.417000       1.00800           0
     12971 TIP3     1465     TIP3     H2       HT       0.417000       1.00800           0
     12972 TIP3     1466     TIP3     OH2      OT      -0.834000       15.9994           0
     12973 TIP3     1466     TIP3     H1       HT       0.417000       1.00800           0
     12974 TIP3     1466     TIP3     H2       HT       0.417000       1.00800           0
     12975 TIP3     1467     TIP3     OH2      OT      -0.834000       15.9994           0
     12976 TIP3     1467     TIP3     H1       HT       0.417000       1.00800           0
     12977 TIP3     1467     TIP3     H2       HT       0.417000       1.00800           0
     12978 TIP3     1468     TIP3     OH2      OT      -0.834000       15.9994           0
     12979 TIP3     1468     TIP3     H1       HT       0.417000       1.00800           0
     12980 TIP3     1468     TIP3     H2       HT       0.417000       1.00800           0
     12981 TIP3     1469     TIP3     OH2      OT      -0.834000       15.9994           0
     12982 TIP3     1469     TIP3     H1       HT       0.417000       1.00800           0
     12983 TIP3     1469     TIP3     H2       HT       0.417000       1.00800           0
     12984 TIP3     1470     TIP3     OH2      OT      -0.834000       15.9994           0
     12985 TIP3     1470     TIP3     H1       HT       0.417000       1.00800           0
     12986 TIP3     1470     TIP3     H2       HT       0.417000       1.00800           0
     12987 TIP3     1471     TIP3     OH2      OT      -0.834000       15.9994           0
     12988 TIP3     1471     TIP3     H1       HT       0.417000       1.00800           0
     12989 TIP3     1471     TIP3     H2       HT       0.417000       1.00800           0
     12990 TIP3     1472     TIP3     OH2      OT      -0.834000       15.9994           0
     12991 TIP3     1472     TIP3     H1       HT       0.417000       1.00800           0
     12992 TIP3     1472     TIP3     H2       HT       0.417000       1.00800           0
     12993 TIP3     1473     TIP3     OH2      OT      -0.834000       15.9994           0
     12994 TIP3     1473     TIP3     H1       HT       0.417000       1.00800           0
     12995 TIP3     1473     TIP3     H2       HT       0.417000       1.00800           0
     12996 TIP3     1474     TIP3     OH2      OT      -0.834000       15.9994           0
     12997 TIP3     1474     TIP3     H1       HT       0.417000       1.00800           0
     12998 TIP3     1474     TIP3     H2       HT       0.417000       1.00800           0
     12999 TIP3     1475     TIP3     OH2      OT      -0.834000       15.9994           0
     13000 TIP3     1475     TIP3     H1       HT       0.417000       1.00800           0
     13001 TIP3     1475     TIP3     H2       HT       0.417000       1.00800           0
     13002 TIP3     1476     TIP3     OH2      OT      -0.834000       15.9994           0
     13003 TIP3     1476     TIP3     H1       HT       0.417000       1.00800           0
     13004 TIP3     1476     TIP3     H2       HT       0.417000       1.00800           0
     13005 TIP3     1477     TIP3     OH2      OT      -0.834000       15.9994           0
     13006 TIP3     1477     TIP3     H1       HT       0.417000       1.00800           0
     13007 TIP3     1477     TIP3     H2       HT       0.417000       1.00800           0
     13008 TIP3     1478     TIP3     OH2      OT      -0.834000       15.9994           0
     13009 TIP3     1478     TIP3     H1       HT       0.417000       1.00800           0
     13010 TIP3     1478     TIP3     H2       HT       0.417000       1.00800           0
     13011 TIP3     1479     TIP3     OH2      OT      -0.834000       15.9994           0
     13012 TIP3     1479     TIP3     H1       HT       0.417000       1.00800           0
     13013 TIP3     1479     TIP3     H2       HT       0.417000       1.00800           0
     13014 TIP3     1480     TIP3     OH2      OT      -0.834000       15.9994           0
     13015 TIP3     1480     TIP3     H1       HT       0.417000       1.00800           0
     13016 TIP3     1480     TIP3     H2       HT       0.417000       1.00800           0
     13017 TIP3     1481     TIP3     OH2      OT      -0.834000       15.9994           0
     13018 TIP3     1481     TIP3     H1       HT       0.417000       1.00800           0
     13019 TIP3     1481     TIP3     H2       HT       0.417000       1.00800           0
     13020 TIP3     1482     TIP3     OH2      OT      -0.834000       15.9994           0
     13021 TIP3     1482     TIP3     H1       HT       0.417000       1.00800           0
     13022 TIP3     1482     TIP3     H2       HT       0.417000       1.00800           0
     13023 TIP3     1483     TIP3     OH2      OT      -0.834000       15.9994           0
     13024 TIP3     1483     TIP3     H1       HT       0.417000       1.00800           0
     13025 TIP3     1483     TIP3     H2       HT       0.417000       1.00800           0
     13026 TIP3     1484     TIP3     OH2      OT      -0.834000       15.9994           0
     13027 TIP3     1484     TIP3     H1       HT       0.417000       1.00800           0
     13028 TIP3     1484     TIP3     H2       HT       0.417000       1.00800           0
     13029 TIP3     1485     TIP3     OH2      OT      -0.834000       15.9994           0
     13030 TIP3     1485     TIP3     H1       HT       0.417000       1.00800           0
     13031 TIP3     1485     TIP3     H2       HT       0.417000       1.00800           0
     13032 TIP3     1486     TIP3     OH2      OT      -0.834000       15.9994           0
     13033 TIP3     1486     TIP3     H1       HT       0.417000       1.00800           0
     13034 TIP3     1486     TIP3     H2       HT       0.417000       1.00800           0
     13035 TIP3     1487     TIP3     OH2      OT      -0.834000       15.9994           0
     13036 TIP3     1487     TIP3     H1       HT       0.417000       1.00800           0
     13037 TIP3     1487     TIP3     H2       HT       0.417000       1.00800           0
     13038 TIP3     1488     TIP3     OH2      OT      -0.834000       15.9994           0
     13039 TIP3     1488     TIP3     H1       HT       0.417000       1.00800           0
     13040 TIP3     1488     TIP3     H2       HT       0.417000       1.00800           0
     13041 TIP3     1489     TIP3     OH2      OT      -0.834000       15.9994           0
     13042 TIP3     1489     TIP3     H1       HT       0.417000       1.00800           0
     13043 TIP3     1489     TIP3     H2       HT       0.417000       1.00800           0
     13044 TIP3     1490     TIP3     OH2      OT      -0.834000       15.9994           0
     13045 TIP3     1490     TIP3     H1       HT       0.417000       1.00800           0
     13046 TIP3     1490     TIP3     H2       HT       0.417000       1.00800           0
     13047 TIP3     1491     TIP3     OH2      OT      -0.834000       15.9994           0
     13048 TIP3     1491     TIP3     H1       HT       0.417000       1.00800           0
     13049 TIP3     1491     TIP3     H2       HT       0.417000       1.00800           0
     13050 TIP3     1492     TIP3     OH2      OT      -0.834000       15.9994           0
     13051 TIP3     1492     TIP3     H1       HT       0.417000       1.00800           0
     13052 TIP3     1492     TIP3     H2       HT       0.417000       1.00800           0
     13053 TIP3     1493     TIP3     OH2      OT      -0.834000       15.9994           0
     13054 TIP3     1493     TIP3     H1       HT       0.417000       1.00800           0
     13055 TIP3     1493     TIP3     H2       HT       0.417000       1.00800           0
     13056 TIP3     1494     TIP3     OH2      OT      -0.834000       15.9994           0
     13057 TIP3     1494     TIP3     H1       HT       0.417000       1.00800           0
     13058 TIP3     1494     TIP3     H2       HT       0.417000       1.00800           0
     13059 TIP3     1495     TIP3     OH2      OT      -0.834000       15.9994           0
     13060 TIP3     1495     TIP3     H1       HT       0.417000       1.00800           0
     13061 TIP3     1495     TIP3     H2       HT       0.417000       1.00800           0
     13062 TIP3     1496     TIP3     OH2      OT      -0.834000       15.9994           0
     13063 TIP3     1496     TIP3     H1       HT       0.417000       1.00800           0
     13064 TIP3     1496     TIP3     H2       HT       0.417000       1.00800           0
     13065 TIP3     1497     TIP3     OH2      OT      -0.834000       15.9994           0
     13066 TIP3     1497     TIP3     H1       HT       0.417000       1.00800           0
     13067 TIP3     1497     TIP3     H2       HT       0.417000       1.00800           0
     13068 TIP3     1498     TIP3     OH2      OT      -0.834000       15.9994           0
     13069 TIP3     1498     TIP3     H1       HT       0.417000       1.00800           0
     13070 TIP3     1498     TIP3     H2       HT       0.417000       1.00800           0
     13071 TIP3     1499     TIP3     OH2      OT      -0.834000       15.9994           0
     13072 TIP3     1499     TIP3     H1       HT       0.417000       1.00800           0
     13073 TIP3     1499     TIP3     H2       HT       0.417000       1.00800           0
     13074 TIP3     1500     TIP3     OH2      OT      -0.834000       15.9994           0
     13075 TIP3     1500     TIP3     H1       HT       0.417000       1.00800           0
     13076 TIP3     1500     TIP3     H2       HT       0.417000       1.00800           0
     13077 TIP3     1501     TIP3     OH2      OT      -0.834000       15.9994           0
     13078 TIP3     1501     TIP3     H1       HT       0.417000       1.00800           0
     13079 TIP3     1501     TIP3     H2       HT       0.417000       1.00800           0
     13080 TIP3     1502     TIP3     OH2      OT      -0.834000       15.9994           0
     13081 TIP3     1502     TIP3     H1       HT       0.417000       1.00800           0
     13082 TIP3     1502     TIP3     H2       HT       0.417000       1.00800           0
     13083 TIP3     1503     TIP3     OH2      OT      -0.834000       15.9994           0
     13084 TIP3     1503     TIP3     H1       HT       0.417000       1.00800           0
     13085 TIP3     1503     TIP3     H2       HT       0.417000       1.00800           0
     13086 TIP3     1504     TIP3     OH2      OT      -0.834000       15.9994           0
     13087 TIP3     1504     TIP3     H1       HT       0.417000       1.00800           0
     13088 TIP3     1504     TIP3     H2       HT       0.417000       1.00800           0
     13089 TIP3     1505     TIP3     OH2      OT      -0.834000       15.9994           0
     13090 TIP3     1505     TIP3     H1       HT       0.417000       1.00800           0
     13091 TIP3     1505     TIP3     H2       HT       0.417000       1.00800           0
     13092 TIP3     1506     TIP3     OH2      OT      -0.834000       15.9994           0
     13093 TIP3     1506     TIP3     H1       HT       0.417000       1.00800           0
     13094 TIP3     1506     TIP3     H2       HT       0.417000       1.00800           0
     13095 TIP3     1507     TIP3     OH2      OT      -0.834000       15.9994           0
     13096 TIP3     1507     TIP3     H1       HT       0.417000       1.00800           0
     13097 TIP3     1507     TIP3     H2       HT       0.417000       1.00800           0
     13098 TIP3     1508     TIP3     OH2      OT      -0.834000       15.9994           0
     13099 TIP3     1508     TIP3     H1       HT       0.417000       1.00800           0
     13100 TIP3     1508     TIP3     H2       HT       0.417000       1.00800           0
     13101 TIP3     1509     TIP3     OH2      OT      -0.834000       15.9994           0
     13102 TIP3     1509     TIP3     H1       HT       0.417000       1.00800           0
     13103 TIP3     1509     TIP3     H2       HT       0.417000       1.00800           0
     13104 TIP3     1510     TIP3     OH2      OT      -0.834000       15.9994           0
     13105 TIP3     1510     TIP3     H1       HT       0.417000       1.00800           0
     13106 TIP3     1510     TIP3     H2       HT       0.417000       1.00800           0
     13107 TIP3     1511     TIP3     OH2      OT      -0.834000       15.9994           0
     13108 TIP3     1511     TIP3     H1       HT       0.417000       1.00800           0
     13109 TIP3     1511     TIP3     H2       HT       0.417000       1.00800           0
     13110 TIP3     1512     TIP3     OH2      OT      -0.834000       15.9994           0
     13111 TIP3     1512     TIP3     H1       HT       0.417000       1.00800           0
     13112 TIP3     1512     TIP3     H2       HT       0.417000       1.00800           0
     13113 TIP3     1513     TIP3     OH2      OT      -0.834000       15.9994           0
     13114 TIP3     1513     TIP3     H1       HT       0.417000       1.00800           0
     13115 TIP3     1513     TIP3     H2       HT       0.417000       1.00800           0
     13116 TIP3     1514     TIP3     OH2      OT      -0.834000       15.9994           0
     13117 TIP3     1514     TIP3     H1       HT       0.417000       1.00800           0
     13118 TIP3     1514     TIP3     H2       HT       0.417000       1.00800           0
     13119 TIP3     1515     TIP3     OH2      OT      -0.834000       15.9994           0
     13120 TIP3     1515     TIP3     H1       HT       0.417000       1.00800           0
     13121 TIP3     1515     TIP3     H2       HT       0.417000       1.00800           0
     13122 TIP3     1516     TIP3     OH2      OT      -0.834000       15.9994           0
     13123 TIP3     1516     TIP3     H1       HT       0.417000       1.00800           0
     13124 TIP3     1516     TIP3     H2       HT       0.417000       1.00800           0
     13125 TIP3     1517     TIP3     OH2      OT      -0.834000       15.9994           0
     13126 TIP3     1517     TIP3     H1       HT       0.417000       1.00800           0
     13127 TIP3     1517     TIP3     H2       HT       0.417000       1.00800           0
     13128 TIP3     1518     TIP3     OH2      OT      -0.834000       15.9994           0
     13129 TIP3     1518     TIP3     H1       HT       0.417000       1.00800           0
     13130 TIP3     1518     TIP3     H2       HT       0.417000       1.00800           0
     13131 TIP3     1519     TIP3     OH2      OT      -0.834000       15.9994           0
     13132 TIP3     1519     TIP3     H1       HT       0.417000       1.00800           0
     13133 TIP3     1519     TIP3     H2       HT       0.417000       1.00800           0
     13134 TIP3     1520     TIP3     OH2      OT      -0.834000       15.9994           0
     13135 TIP3     1520     TIP3     H1       HT       0.417000       1.00800           0
     13136 TIP3     1520     TIP3     H2       HT       0.417000       1.00800           0
     13137 TIP3     1521     TIP3     OH2      OT      -0.834000       15.9994           0
     13138 TIP3     1521     TIP3     H1       HT       0.417000       1.00800           0
     13139 TIP3     1521     TIP3     H2       HT       0.417000       1.00800           0
     13140 TIP3     1522     TIP3     OH2      OT      -0.834000       15.9994           0
     13141 TIP3     1522     TIP3     H1       HT       0.417000       1.00800           0
     13142 TIP3     1522     TIP3     H2       HT       0.417000       1.00800           0
     13143 TIP3     1523     TIP3     OH2      OT      -0.834000       15.9994           0
     13144 TIP3     1523     TIP3     H1       HT       0.417000       1.00800           0
     13145 TIP3     1523     TIP3     H2       HT       0.417000       1.00800           0
     13146 TIP3     1524     TIP3     OH2      OT      -0.834000       15.9994           0
     13147 TIP3     1524     TIP3     H1       HT       0.417000       1.00800           0
     13148 TIP3     1524     TIP3     H2       HT       0.417000       1.00800           0
     13149 TIP3     1525     TIP3     OH2      OT      -0.834000       15.9994           0
     13150 TIP3     1525     TIP3     H1       HT       0.417000       1.00800           0
     13151 TIP3     1525     TIP3     H2       HT       0.417000       1.00800           0
     13152 TIP3     1526     TIP3     OH2      OT      -0.834000       15.9994           0
     13153 TIP3     1526     TIP3     H1       HT       0.417000       1.00800           0
     13154 TIP3     1526     TIP3     H2       HT       0.417000       1.00800           0
     13155 TIP3     1527     TIP3     OH2      OT      -0.834000       15.9994           0
     13156 TIP3     1527     TIP3     H1       HT       0.417000       1.00800           0
     13157 TIP3     1527     TIP3     H2       HT       0.417000       1.00800           0
     13158 TIP3     1528     TIP3     OH2      OT      -0.834000       15.9994           0
     13159 TIP3     1528     TIP3     H1       HT       0.417000       1.00800           0
     13160 TIP3     1528     TIP3     H2       HT       0.417000       1.00800           0
     13161 TIP3     1529     TIP3     OH2      OT      -0.834000       15.9994           0
     13162 TIP3     1529     TIP3     H1       HT       0.417000       1.00800           0
     13163 TIP3     1529     TIP3     H2       HT       0.417000       1.00800           0
     13164 TIP3     1530     TIP3     OH2      OT      -0.834000       15.9994           0
     13165 TIP3     1530     TIP3     H1       HT       0.417000       1.00800           0
     13166 TIP3     1530     TIP3     H2       HT       0.417000       1.00800           0
     13167 TIP3     1531     TIP3     OH2      OT      -0.834000       15.9994           0
     13168 TIP3     1531     TIP3     H1       HT       0.417000       1.00800           0
     13169 TIP3     1531     TIP3     H2       HT       0.417000       1.00800           0
     13170 TIP3     1532     TIP3     OH2      OT      -0.834000       15.9994           0
     13171 TIP3     1532     TIP3     H1       HT       0.417000       1.00800           0
     13172 TIP3     1532     TIP3     H2       HT       0.417000       1.00800           0
     13173 TIP3     1533     TIP3     OH2      OT      -0.834000       15.9994           0
     13174 TIP3     1533     TIP3     H1       HT       0.417000       1.00800           0
     13175 TIP3     1533     TIP3     H2       HT       0.417000       1.00800           0
     13176 TIP3     1534     TIP3     OH2      OT      -0.834000       15.9994           0
     13177 TIP3     1534     TIP3     H1       HT       0.417000       1.00800           0
     13178 TIP3     1534     TIP3     H2       HT       0.417000       1.00800           0
     13179 TIP3     1535     TIP3     OH2      OT      -0.834000       15.9994           0
     13180 TIP3     1535     TIP3     H1       HT       0.417000       1.00800           0
     13181 TIP3     1535     TIP3     H2       HT       0.417000       1.00800           0
     13182 TIP3     1536     TIP3     OH2      OT      -0.834000       15.9994           0
     13183 TIP3     1536     TIP3     H1       HT       0.417000       1.00800           0
     13184 TIP3     1536     TIP3     H2       HT       0.417000       1.00800           0
     13185 TIP3     1537     TIP3     OH2      OT      -0.834000       15.9994           0
     13186 TIP3     1537     TIP3     H1       HT       0.417000       1.00800           0
     13187 TIP3     1537     TIP3     H2       HT       0.417000       1.00800           0
     13188 TIP3     1538     TIP3     OH2      OT      -0.834000       15.9994           0
     13189 TIP3     1538     TIP3     H1       HT       0.417000       1.00800           0
     13190 TIP3     1538     TIP3     H2       HT       0.417000       1.00800           0
     13191 TIP3     1539     TIP3     OH2      OT      -0.834000       15.9994           0
     13192 TIP3     1539     TIP3     H1       HT       0.417000       1.00800           0
     13193 TIP3     1539     TIP3     H2       HT       0.417000       1.00800           0
     13194 TIP3     1540     TIP3     OH2      OT      -0.834000       15.9994           0
     13195 TIP3     1540     TIP3     H1       HT       0.417000       1.00800           0
     13196 TIP3     1540     TIP3     H2       HT       0.417000       1.00800           0
     13197 TIP3     1541     TIP3     OH2      OT      -0.834000       15.9994           0
     13198 TIP3     1541     TIP3     H1       HT       0.417000       1.00800           0
     13199 TIP3     1541     TIP3     H2       HT       0.417000       1.00800           0
     13200 TIP3     1542     TIP3     OH2      OT      -0.834000       15.9994           0
     13201 TIP3     1542     TIP3     H1       HT       0.417000       1.00800           0
     13202 TIP3     1542     TIP3     H2       HT       0.417000       1.00800           0
     13203 TIP3     1543     TIP3     OH2      OT      -0.834000       15.9994           0
     13204 TIP3     1543     TIP3     H1       HT       0.417000       1.00800           0
     13205 TIP3     1543     TIP3     H2       HT       0.417000       1.00800           0
     13206 TIP3     1544     TIP3     OH2      OT      -0.834000       15.9994           0
     13207 TIP3     1544     TIP3     H1       HT       0.417000       1.00800           0
     13208 TIP3     1544     TIP3     H2       HT       0.417000       1.00800           0
     13209 TIP3     1545     TIP3     OH2      OT      -0.834000       15.9994           0
     13210 TIP3     1545     TIP3     H1       HT       0.417000       1.00800           0
     13211 TIP3     1545     TIP3     H2       HT       0.417000       1.00800           0
     13212 TIP3     1546     TIP3     OH2      OT      -0.834000       15.9994           0
     13213 TIP3     1546     TIP3     H1       HT       0.417000       1.00800           0
     13214 TIP3     1546     TIP3     H2       HT       0.417000       1.00800           0
     13215 TIP3     1547     TIP3     OH2      OT      -0.834000       15.9994           0
     13216 TIP3     1547     TIP3     H1       HT       0.417000       1.00800           0
     13217 TIP3     1547     TIP3     H2       HT       0.417000       1.00800           0
     13218 TIP3     1548     TIP3     OH2      OT      -0.834000       15.9994           0
     13219 TIP3     1548     TIP3     H1       HT       0.417000       1.00800           0
     13220 TIP3     1548     TIP3     H2       HT       0.417000       1.00800           0
     13221 TIP3     1549     TIP3     OH2      OT      -0.834000       15.9994           0
     13222 TIP3     1549     TIP3     H1       HT       0.417000       1.00800           0
     13223 TIP3     1549     TIP3     H2       HT       0.417000       1.00800           0
     13224 TIP3     1550     TIP3     OH2      OT      -0.834000       15.9994           0
     13225 TIP3     1550     TIP3     H1       HT       0.417000       1.00800           0
     13226 TIP3     1550     TIP3     H2       HT       0.417000       1.00800           0
     13227 TIP3     1551     TIP3     OH2      OT      -0.834000       15.9994           0
     13228 TIP3     1551     TIP3     H1       HT       0.417000       1.00800           0
     13229 TIP3     1551     TIP3     H2       HT       0.417000       1.00800           0
     13230 TIP3     1552     TIP3     OH2      OT      -0.834000       15.9994           0
     13231 TIP3     1552     TIP3     H1       HT       0.417000       1.00800           0
     13232 TIP3     1552     TIP3     H2       HT       0.417000       1.00800           0
     13233 TIP3     1553     TIP3     OH2      OT      -0.834000       15.9994           0
     13234 TIP3     1553     TIP3     H1       HT       0.417000       1.00800           0
     13235 TIP3     1553     TIP3     H2       HT       0.417000       1.00800           0
     13236 TIP3     1554     TIP3     OH2      OT      -0.834000       15.9994           0
     13237 TIP3     1554     TIP3     H1       HT       0.417000       1.00800           0
     13238 TIP3     1554     TIP3     H2       HT       0.417000       1.00800           0
     13239 TIP3     1555     TIP3     OH2      OT      -0.834000       15.9994           0
     13240 TIP3     1555     TIP3     H1       HT       0.417000       1.00800           0
     13241 TIP3     1555     TIP3     H2       HT       0.417000       1.00800           0
     13242 TIP3     1556     TIP3     OH2      OT      -0.834000       15.9994           0
     13243 TIP3     1556     TIP3     H1       HT       0.417000       1.00800           0
     13244 TIP3     1556     TIP3     H2       HT       0.417000       1.00800           0
     13245 TIP3     1557     TIP3     OH2      OT      -0.834000       15.9994           0
     13246 TIP3     1557     TIP3     H1       HT       0.417000       1.00800           0
     13247 TIP3     1557     TIP3     H2       HT       0.417000       1.00800           0
     13248 TIP3     1558     TIP3     OH2      OT      -0.834000       15.9994           0
     13249 TIP3     1558     TIP3     H1       HT       0.417000       1.00800           0
     13250 TIP3     1558     TIP3     H2       HT       0.417000       1.00800           0
     13251 TIP3     1559     TIP3     OH2      OT      -0.834000       15.9994           0
     13252 TIP3     1559     TIP3     H1       HT       0.417000       1.00800           0
     13253 TIP3     1559     TIP3     H2       HT       0.417000       1.00800           0
     13254 TIP3     1560     TIP3     OH2      OT      -0.834000       15.9994           0
     13255 TIP3     1560     TIP3     H1       HT       0.417000       1.00800           0
     13256 TIP3     1560     TIP3     H2       HT       0.417000       1.00800           0
     13257 TIP3     1561     TIP3     OH2      OT      -0.834000       15.9994           0
     13258 TIP3     1561     TIP3     H1       HT       0.417000       1.00800           0
     13259 TIP3     1561     TIP3     H2       HT       0.417000       1.00800           0
     13260 TIP3     1562     TIP3     OH2      OT      -0.834000       15.9994           0
     13261 TIP3     1562     TIP3     H1       HT       0.417000       1.00800           0
     13262 TIP3     1562     TIP3     H2       HT       0.417000       1.00800           0
     13263 TIP3     1563     TIP3     OH2      OT      -0.834000       15.9994           0
     13264 TIP3     1563     TIP3     H1       HT       0.417000       1.00800           0
     13265 TIP3     1563     TIP3     H2       HT       0.417000       1.00800           0
     13266 TIP3     1564     TIP3     OH2      OT      -0.834000       15.9994           0
     13267 TIP3     1564     TIP3     H1       HT       0.417000       1.00800           0
     13268 TIP3     1564     TIP3     H2       HT       0.417000       1.00800           0
     13269 TIP3     1565     TIP3     OH2      OT      -0.834000       15.9994           0
     13270 TIP3     1565     TIP3     H1       HT       0.417000       1.00800           0
     13271 TIP3     1565     TIP3     H2       HT       0.417000       1.00800           0
     13272 TIP3     1566     TIP3     OH2      OT      -0.834000       15.9994           0
     13273 TIP3     1566     TIP3     H1       HT       0.417000       1.00800           0
     13274 TIP3     1566     TIP3     H2       HT       0.417000       1.00800           0
     13275 TIP3     1567     TIP3     OH2      OT      -0.834000       15.9994           0
     13276 TIP3     1567     TIP3     H1       HT       0.417000       1.00800           0
     13277 TIP3     1567     TIP3     H2       HT       0.417000       1.00800           0
     13278 TIP3     1568     TIP3     OH2      OT      -0.834000       15.9994           0
     13279 TIP3     1568     TIP3     H1       HT       0.417000       1.00800           0
     13280 TIP3     1568     TIP3     H2       HT       0.417000       1.00800           0
     13281 TIP3     1569     TIP3     OH2      OT      -0.834000       15.9994           0
     13282 TIP3     1569     TIP3     H1       HT       0.417000       1.00800           0
     13283 TIP3     1569     TIP3     H2       HT       0.417000       1.00800           0
     13284 TIP3     1570     TIP3     OH2      OT      -0.834000       15.9994           0
     13285 TIP3     1570     TIP3     H1       HT       0.417000       1.00800           0
     13286 TIP3     1570     TIP3     H2       HT       0.417000       1.00800           0
     13287 TIP3     1571     TIP3     OH2      OT      -0.834000       15.9994           0
     13288 TIP3     1571     TIP3     H1       HT       0.417000       1.00800           0
     13289 TIP3     1571     TIP3     H2       HT       0.417000       1.00800           0
     13290 TIP3     1572     TIP3     OH2      OT      -0.834000       15.9994           0
     13291 TIP3     1572     TIP3     H1       HT       0.417000       1.00800           0
     13292 TIP3     1572     TIP3     H2       HT       0.417000       1.00800           0
     13293 TIP3     1573     TIP3     OH2      OT      -0.834000       15.9994           0
     13294 TIP3     1573     TIP3     H1       HT       0.417000       1.00800           0
     13295 TIP3     1573     TIP3     H2       HT       0.417000       1.00800           0
     13296 TIP3     1574     TIP3     OH2      OT      -0.834000       15.9994           0
     13297 TIP3     1574     TIP3     H1       HT       0.417000       1.00800           0
     13298 TIP3     1574     TIP3     H2       HT       0.417000       1.00800           0
     13299 TIP3     1575     TIP3     OH2      OT      -0.834000       15.9994           0
     13300 TIP3     1575     TIP3     H1       HT       0.417000       1.00800           0
     13301 TIP3     1575     TIP3     H2       HT       0.417000       1.00800           0
     13302 TIP3     1576     TIP3     OH2      OT      -0.834000       15.9994           0
     13303 TIP3     1576     TIP3     H1       HT       0.417000       1.00800           0
     13304 TIP3     1576     TIP3     H2       HT       0.417000       1.00800           0
     13305 TIP3     1577     TIP3     OH2      OT      -0.834000       15.9994           0
     13306 TIP3     1577     TIP3     H1       HT       0.417000       1.00800           0
     13307 TIP3     1577     TIP3     H2       HT       0.417000       1.00800           0
     13308 TIP3     1578     TIP3     OH2      OT      -0.834000       15.9994           0
     13309 TIP3     1578     TIP3     H1       HT       0.417000       1.00800           0
     13310 TIP3     1578     TIP3     H2       HT       0.417000       1.00800           0
     13311 TIP3     1579     TIP3     OH2      OT      -0.834000       15.9994           0
     13312 TIP3     1579     TIP3     H1       HT       0.417000       1.00800           0
     13313 TIP3     1579     TIP3     H2       HT       0.417000       1.00800           0
     13314 TIP3     1580     TIP3     OH2      OT      -0.834000       15.9994           0
     13315 TIP3     1580     TIP3     H1       HT       0.417000       1.00800           0
     13316 TIP3     1580     TIP3     H2       HT       0.417000       1.00800           0
     13317 TIP3     1581     TIP3     OH2      OT      -0.834000       15.9994           0
     13318 TIP3     1581     TIP3     H1       HT       0.417000       1.00800           0
     13319 TIP3     1581     TIP3     H2       HT       0.417000       1.00800           0
     13320 TIP3     1582     TIP3     OH2      OT      -0.834000       15.9994           0
     13321 TIP3     1582     TIP3     H1       HT       0.417000       1.00800           0
     13322 TIP3     1582     TIP3     H2       HT       0.417000       1.00800           0
     13323 TIP3     1583     TIP3     OH2      OT      -0.834000       15.9994           0
     13324 TIP3     1583     TIP3     H1       HT       0.417000       1.00800           0
     13325 TIP3     1583     TIP3     H2       HT       0.417000       1.00800           0
     13326 TIP3     1584     TIP3     OH2      OT      -0.834000       15.9994           0
     13327 TIP3     1584     TIP3     H1       HT       0.417000       1.00800           0
     13328 TIP3     1584     TIP3     H2       HT       0.417000       1.00800           0
     13329 TIP3     1585     TIP3     OH2      OT      -0.834000       15.9994           0
     13330 TIP3     1585     TIP3     H1       HT       0.417000       1.00800           0
     13331 TIP3     1585     TIP3     H2       HT       0.417000       1.00800           0
     13332 TIP3     1586     TIP3     OH2      OT      -0.834000       15.9994           0
     13333 TIP3     1586     TIP3     H1       HT       0.417000       1.00800           0
     13334 TIP3     1586     TIP3     H2       HT       0.417000       1.00800           0
     13335 TIP3     1587     TIP3     OH2      OT      -0.834000       15.9994           0
     13336 TIP3     1587     TIP3     H1       HT       0.417000       1.00800           0
     13337 TIP3     1587     TIP3     H2       HT       0.417000       1.00800           0
     13338 TIP3     1588     TIP3     OH2      OT      -0.834000       15.9994           0
     13339 TIP3     1588     TIP3     H1       HT       0.417000       1.00800           0
     13340 TIP3     1588     TIP3     H2       HT       0.417000       1.00800           0
     13341 TIP3     1589     TIP3     OH2      OT      -0.834000       15.9994           0
     13342 TIP3     1589     TIP3     H1       HT       0.417000       1.00800           0
     13343 TIP3     1589     TIP3     H2       HT       0.417000       1.00800           0
     13344 TIP3     1590     TIP3     OH2      OT      -0.834000       15.9994           0
     13345 TIP3     1590     TIP3     H1       HT       0.417000       1.00800           0
     13346 TIP3     1590     TIP3     H2       HT       0.417000       1.00800           0
     13347 TIP3     1591     TIP3     OH2      OT      -0.834000       15.9994           0
     13348 TIP3     1591     TIP3     H1       HT       0.417000       1.00800           0
     13349 TIP3     1591     TIP3     H2       HT       0.417000       1.00800           0
     13350 TIP3     1592     TIP3     OH2      OT      -0.834000       15.9994           0
     13351 TIP3     1592     TIP3     H1       HT       0.417000       1.00800           0
     13352 TIP3     1592     TIP3     H2       HT       0.417000       1.00800           0
     13353 TIP3     1593     TIP3     OH2      OT      -0.834000       15.9994           0
     13354 TIP3     1593     TIP3     H1       HT       0.417000       1.00800           0
     13355 TIP3     1593     TIP3     H2       HT       0.417000       1.00800           0
     13356 TIP3     1594     TIP3     OH2      OT      -0.834000       15.9994           0
     13357 TIP3     1594     TIP3     H1       HT       0.417000       1.00800           0
     13358 TIP3     1594     TIP3     H2       HT       0.417000       1.00800           0
     13359 TIP3     1595     TIP3     OH2      OT      -0.834000       15.9994           0
     13360 TIP3     1595     TIP3     H1       HT       0.417000       1.00800           0
     13361 TIP3     1595     TIP3     H2       HT       0.417000       1.00800           0
     13362 TIP3     1596     TIP3     OH2      OT      -0.834000       15.9994           0
     13363 TIP3     1596     TIP3     H1       HT       0.417000       1.00800           0
     13364 TIP3     1596     TIP3     H2       HT       0.417000       1.00800           0
     13365 TIP3     1597     TIP3     OH2      OT      -0.834000       15.9994           0
     13366 TIP3     1597     TIP3     H1       HT       0.417000       1.00800           0
     13367 TIP3     1597     TIP3     H2       HT       0.417000       1.00800           0
     13368 TIP3     1598     TIP3     OH2      OT      -0.834000       15.9994           0
     13369 TIP3     1598     TIP3     H1       HT       0.417000       1.00800           0
     13370 TIP3     1598     TIP3     H2       HT       0.417000       1.00800           0
     13371 TIP3     1599     TIP3     OH2      OT      -0.834000       15.9994           0
     13372 TIP3     1599     TIP3     H1       HT       0.417000       1.00800           0
     13373 TIP3     1599     TIP3     H2       HT       0.417000       1.00800           0
     13374 TIP3     1600     TIP3     OH2      OT      -0.834000       15.9994           0
     13375 TIP3     1600     TIP3     H1       HT       0.417000       1.00800           0
     13376 TIP3     1600     TIP3     H2       HT       0.417000       1.00800           0
     13377 TIP3     1601     TIP3     OH2      OT      -0.834000       15.9994           0
     13378 TIP3     1601     TIP3     H1       HT       0.417000       1.00800           0
     13379 TIP3     1601     TIP3     H2       HT       0.417000       1.00800           0
     13380 TIP3     1602     TIP3     OH2      OT      -0.834000       15.9994           0
     13381 TIP3     1602     TIP3     H1       HT       0.417000       1.00800           0
     13382 TIP3     1602     TIP3     H2       HT       0.417000       1.00800           0
     13383 TIP3     1603     TIP3     OH2      OT      -0.834000       15.9994           0
     13384 TIP3     1603     TIP3     H1       HT       0.417000       1.00800           0
     13385 TIP3     1603     TIP3     H2       HT       0.417000       1.00800           0
     13386 TIP3     1604     TIP3     OH2      OT      -0.834000       15.9994           0
     13387 TIP3     1604     TIP3     H1       HT       0.417000       1.00800           0
     13388 TIP3     1604     TIP3     H2       HT       0.417000       1.00800           0
     13389 TIP3     1605     TIP3     OH2      OT      -0.834000       15.9994           0
     13390 TIP3     1605     TIP3     H1       HT       0.417000       1.00800           0
     13391 TIP3     1605     TIP3     H2       HT       0.417000       1.00800           0
     13392 TIP3     1606     TIP3     OH2      OT      -0.834000       15.9994           0
     13393 TIP3     1606     TIP3     H1       HT       0.417000       1.00800           0
     13394 TIP3     1606     TIP3     H2       HT       0.417000       1.00800           0
     13395 TIP3     1607     TIP3     OH2      OT      -0.834000       15.9994           0
     13396 TIP3     1607     TIP3     H1       HT       0.417000       1.00800           0
     13397 TIP3     1607     TIP3     H2       HT       0.417000       1.00800           0
     13398 TIP3     1608     TIP3     OH2      OT      -0.834000       15.9994           0
     13399 TIP3     1608     TIP3     H1       HT       0.417000       1.00800           0
     13400 TIP3     1608     TIP3     H2       HT       0.417000       1.00800           0
     13401 TIP3     1609     TIP3     OH2      OT      -0.834000       15.9994           0
     13402 TIP3     1609     TIP3     H1       HT       0.417000       1.00800           0
     13403 TIP3     1609     TIP3     H2       HT       0.417000       1.00800           0
     13404 TIP3     1610     TIP3     OH2      OT      -0.834000       15.9994           0
     13405 TIP3     1610     TIP3     H1       HT       0.417000       1.00800           0
     13406 TIP3     1610     TIP3     H2       HT       0.417000       1.00800           0
     13407 TIP3     1611     TIP3     OH2      OT      -0.834000       15.9994           0
     13408 TIP3     1611     TIP3     H1       HT       0.417000       1.00800           0
     13409 TIP3     1611     TIP3     H2       HT       0.417000       1.00800           0
     13410 TIP3     1612     TIP3     OH2      OT      -0.834000       15.9994           0
     13411 TIP3     1612     TIP3     H1       HT       0.417000       1.00800           0
     13412 TIP3     1612     TIP3     H2       HT       0.417000       1.00800           0
     13413 TIP3     1613     TIP3     OH2      OT      -0.834000       15.9994           0
     13414 TIP3     1613     TIP3     H1       HT       0.417000       1.00800           0
     13415 TIP3     1613     TIP3     H2       HT       0.417000       1.00800           0
     13416 TIP3     1614     TIP3     OH2      OT      -0.834000       15.9994           0
     13417 TIP3     1614     TIP3     H1       HT       0.417000       1.00800           0
     13418 TIP3     1614     TIP3     H2       HT       0.417000       1.00800           0
     13419 TIP3     1615     TIP3     OH2      OT      -0.834000       15.9994           0
     13420 TIP3     1615     TIP3     H1       HT       0.417000       1.00800           0
     13421 TIP3     1615     TIP3     H2       HT       0.417000       1.00800           0
     13422 TIP3     1616     TIP3     OH2      OT      -0.834000       15.9994           0
     13423 TIP3     1616     TIP3     H1       HT       0.417000       1.00800           0
     13424 TIP3     1616     TIP3     H2       HT       0.417000       1.00800           0
     13425 TIP3     1617     TIP3     OH2      OT      -0.834000       15.9994           0
     13426 TIP3     1617     TIP3     H1       HT       0.417000       1.00800           0
     13427 TIP3     1617     TIP3     H2       HT       0.417000       1.00800           0
     13428 TIP3     1618     TIP3     OH2      OT      -0.834000       15.9994           0
     13429 TIP3     1618     TIP3     H1       HT       0.417000       1.00800           0
     13430 TIP3     1618     TIP3     H2       HT       0.417000       1.00800           0
     13431 TIP3     1619     TIP3     OH2      OT      -0.834000       15.9994           0
     13432 TIP3     1619     TIP3     H1       HT       0.417000       1.00800           0
     13433 TIP3     1619     TIP3     H2       HT       0.417000       1.00800           0
     13434 TIP3     1620     TIP3     OH2      OT      -0.834000       15.9994           0
     13435 TIP3     1620     TIP3     H1       HT       0.417000       1.00800           0
     13436 TIP3     1620     TIP3     H2       HT       0.417000       1.00800           0
     13437 TIP3     1621     TIP3     OH2      OT      -0.834000       15.9994           0
     13438 TIP3     1621     TIP3     H1       HT       0.417000       1.00800           0
     13439 TIP3     1621     TIP3     H2       HT       0.417000       1.00800           0
     13440 TIP3     1622     TIP3     OH2      OT      -0.834000       15.9994           0
     13441 TIP3     1622     TIP3     H1       HT       0.417000       1.00800           0
     13442 TIP3     1622     TIP3     H2       HT       0.417000       1.00800           0
     13443 TIP3     1623     TIP3     OH2      OT      -0.834000       15.9994           0
     13444 TIP3     1623     TIP3     H1       HT       0.417000       1.00800           0
     13445 TIP3     1623     TIP3     H2       HT       0.417000       1.00800           0
     13446 TIP3     1624     TIP3     OH2      OT      -0.834000       15.9994           0
     13447 TIP3     1624     TIP3     H1       HT       0.417000       1.00800           0
     13448 TIP3     1624     TIP3     H2       HT       0.417000       1.00800           0
     13449 TIP3     1625     TIP3     OH2      OT      -0.834000       15.9994           0
     13450 TIP3     1625     TIP3     H1       HT       0.417000       1.00800           0
     13451 TIP3     1625     TIP3     H2       HT       0.417000       1.00800           0
     13452 TIP3     1626     TIP3     OH2      OT      -0.834000       15.9994           0
     13453 TIP3     1626     TIP3     H1       HT       0.417000       1.00800           0
     13454 TIP3     1626     TIP3     H2       HT       0.417000       1.00800           0
     13455 TIP3     1627     TIP3     OH2      OT      -0.834000       15.9994           0
     13456 TIP3     1627     TIP3     H1       HT       0.417000       1.00800           0
     13457 TIP3     1627     TIP3     H2       HT       0.417000       1.00800           0
     13458 TIP3     1628     TIP3     OH2      OT      -0.834000       15.9994           0
     13459 TIP3     1628     TIP3     H1       HT       0.417000       1.00800           0
     13460 TIP3     1628     TIP3     H2       HT       0.417000       1.00800           0
     13461 TIP3     1629     TIP3     OH2      OT      -0.834000       15.9994           0
     13462 TIP3     1629     TIP3     H1       HT       0.417000       1.00800           0
     13463 TIP3     1629     TIP3     H2       HT       0.417000       1.00800           0
     13464 TIP3     1630     TIP3     OH2      OT      -0.834000       15.9994           0
     13465 TIP3     1630     TIP3     H1       HT       0.417000       1.00800           0
     13466 TIP3     1630     TIP3     H2       HT       0.417000       1.00800           0
     13467 TIP3     1631     TIP3     OH2      OT      -0.834000       15.9994           0
     13468 TIP3     1631     TIP3     H1       HT       0.417000       1.00800           0
     13469 TIP3     1631     TIP3     H2       HT       0.417000       1.00800           0
     13470 TIP3     1632     TIP3     OH2      OT      -0.834000       15.9994           0
     13471 TIP3     1632     TIP3     H1       HT       0.417000       1.00800           0
     13472 TIP3     1632     TIP3     H2       HT       0.417000       1.00800           0
     13473 TIP3     1633     TIP3     OH2      OT      -0.834000       15.9994           0
     13474 TIP3     1633     TIP3     H1       HT       0.417000       1.00800           0
     13475 TIP3     1633     TIP3     H2       HT       0.417000       1.00800           0
     13476 TIP3     1634     TIP3     OH2      OT      -0.834000       15.9994           0
     13477 TIP3     1634     TIP3     H1       HT       0.417000       1.00800           0
     13478 TIP3     1634     TIP3     H2       HT       0.417000       1.00800           0
     13479 TIP3     1635     TIP3     OH2      OT      -0.834000       15.9994           0
     13480 TIP3     1635     TIP3     H1       HT       0.417000       1.00800           0
     13481 TIP3     1635     TIP3     H2       HT       0.417000       1.00800           0
     13482 TIP3     1636     TIP3     OH2      OT      -0.834000       15.9994           0
     13483 TIP3     1636     TIP3     H1       HT       0.417000       1.00800           0
     13484 TIP3     1636     TIP3     H2       HT       0.417000       1.00800           0
     13485 TIP3     1637     TIP3     OH2      OT      -0.834000       15.9994           0
     13486 TIP3     1637     TIP3     H1       HT       0.417000       1.00800           0
     13487 TIP3     1637     TIP3     H2       HT       0.417000       1.00800           0
     13488 TIP3     1638     TIP3     OH2      OT      -0.834000       15.9994           0
     13489 TIP3     1638     TIP3     H1       HT       0.417000       1.00800           0
     13490 TIP3     1638     TIP3     H2       HT       0.417000       1.00800           0
     13491 TIP3     1639     TIP3     OH2      OT      -0.834000       15.9994           0
     13492 TIP3     1639     TIP3     H1       HT       0.417000       1.00800           0
     13493 TIP3     1639     TIP3     H2       HT       0.417000       1.00800           0
     13494 TIP3     1640     TIP3     OH2      OT      -0.834000       15.9994           0
     13495 TIP3     1640     TIP3     H1       HT       0.417000       1.00800           0
     13496 TIP3     1640     TIP3     H2       HT       0.417000       1.00800           0
     13497 TIP3     1641     TIP3     OH2      OT      -0.834000       15.9994           0
     13498 TIP3     1641     TIP3     H1       HT       0.417000       1.00800           0
     13499 TIP3     1641     TIP3     H2       HT       0.417000       1.00800           0
     13500 TIP3     1642     TIP3     OH2      OT      -0.834000       15.9994           0
     13501 TIP3     1642     TIP3     H1       HT       0.417000       1.00800           0
     13502 TIP3     1642     TIP3     H2       HT       0.417000       1.00800           0
     13503 TIP3     1643     TIP3     OH2      OT      -0.834000       15.9994           0
     13504 TIP3     1643     TIP3     H1       HT       0.417000       1.00800           0
     13505 TIP3     1643     TIP3     H2       HT       0.417000       1.00800           0
     13506 TIP3     1644     TIP3     OH2      OT      -0.834000       15.9994           0
     13507 TIP3     1644     TIP3     H1       HT       0.417000       1.00800           0
     13508 TIP3     1644     TIP3     H2       HT       0.417000       1.00800           0
     13509 TIP3     1645     TIP3     OH2      OT      -0.834000       15.9994           0
     13510 TIP3     1645     TIP3     H1       HT       0.417000       1.00800           0
     13511 TIP3     1645     TIP3     H2       HT       0.417000       1.00800           0
     13512 TIP3     1646     TIP3     OH2      OT      -0.834000       15.9994           0
     13513 TIP3     1646     TIP3     H1       HT       0.417000       1.00800           0
     13514 TIP3     1646     TIP3     H2       HT       0.417000       1.00800           0
     13515 TIP3     1647     TIP3     OH2      OT      -0.834000       15.9994           0
     13516 TIP3     1647     TIP3     H1       HT       0.417000       1.00800           0
     13517 TIP3     1647     TIP3     H2       HT       0.417000       1.00800           0
     13518 TIP3     1648     TIP3     OH2      OT      -0.834000       15.9994           0
     13519 TIP3     1648     TIP3     H1       HT       0.417000       1.00800           0
     13520 TIP3     1648     TIP3     H2       HT       0.417000       1.00800           0
     13521 TIP3     1649     TIP3     OH2      OT      -0.834000       15.9994           0
     13522 TIP3     1649     TIP3     H1       HT       0.417000       1.00800           0
     13523 TIP3     1649     TIP3     H2       HT       0.417000       1.00800           0
     13524 TIP3     1650     TIP3     OH2      OT      -0.834000       15.9994           0
     13525 TIP3     1650     TIP3     H1       HT       0.417000       1.00800           0
     13526 TIP3     1650     TIP3     H2       HT       0.417000       1.00800           0
     13527 TIP3     1651     TIP3     OH2      OT      -0.834000       15.9994           0
     13528 TIP3     1651     TIP3     H1       HT       0.417000       1.00800           0
     13529 TIP3     1651     TIP3     H2       HT       0.417000       1.00800           0
     13530 TIP3     1652     TIP3     OH2      OT      -0.834000       15.9994           0
     13531 TIP3     1652     TIP3     H1       HT       0.417000       1.00800           0
     13532 TIP3     1652     TIP3     H2       HT       0.417000       1.00800           0
     13533 TIP3     1653     TIP3     OH2      OT      -0.834000       15.9994           0
     13534 TIP3     1653     TIP3     H1       HT       0.417000       1.00800           0
     13535 TIP3     1653     TIP3     H2       HT       0.417000       1.00800           0
     13536 TIP3     1654     TIP3     OH2      OT      -0.834000       15.9994           0
     13537 TIP3     1654     TIP3     H1       HT       0.417000       1.00800           0
     13538 TIP3     1654     TIP3     H2       HT       0.417000       1.00800           0
     13539 TIP3     1655     TIP3     OH2      OT      -0.834000       15.9994           0
     13540 TIP3     1655     TIP3     H1       HT       0.417000       1.00800           0
     13541 TIP3     1655     TIP3     H2       HT       0.417000       1.00800           0
     13542 TIP3     1656     TIP3     OH2      OT      -0.834000       15.9994           0
     13543 TIP3     1656     TIP3     H1       HT       0.417000       1.00800           0
     13544 TIP3     1656     TIP3     H2       HT       0.417000       1.00800           0
     13545 TIP3     1657     TIP3     OH2      OT      -0.834000       15.9994           0
     13546 TIP3     1657     TIP3     H1       HT       0.417000       1.00800           0
     13547 TIP3     1657     TIP3     H2       HT       0.417000       1.00800           0
     13548 TIP3     1658     TIP3     OH2      OT      -0.834000       15.9994           0
     13549 TIP3     1658     TIP3     H1       HT       0.417000       1.00800           0
     13550 TIP3     1658     TIP3     H2       HT       0.417000       1.00800           0
     13551 TIP3     1659     TIP3     OH2      OT      -0.834000       15.9994           0
     13552 TIP3     1659     TIP3     H1       HT       0.417000       1.00800           0
     13553 TIP3     1659     TIP3     H2       HT       0.417000       1.00800           0
     13554 TIP3     1660     TIP3     OH2      OT      -0.834000       15.9994           0
     13555 TIP3     1660     TIP3     H1       HT       0.417000       1.00800           0
     13556 TIP3     1660     TIP3     H2       HT       0.417000       1.00800           0
     13557 TIP3     1661     TIP3     OH2      OT      -0.834000       15.9994           0
     13558 TIP3     1661     TIP3     H1       HT       0.417000       1.00800           0
     13559 TIP3     1661     TIP3     H2       HT       0.417000       1.00800           0
     13560 TIP3     1662     TIP3     OH2      OT      -0.834000       15.9994           0
     13561 TIP3     1662     TIP3     H1       HT       0.417000       1.00800           0
     13562 TIP3     1662     TIP3     H2       HT       0.417000       1.00800           0
     13563 TIP3     1663     TIP3     OH2      OT      -0.834000       15.9994           0
     13564 TIP3     1663     TIP3     H1       HT       0.417000       1.00800           0
     13565 TIP3     1663     TIP3     H2       HT       0.417000       1.00800           0
     13566 TIP3     1664     TIP3     OH2      OT      -0.834000       15.9994           0
     13567 TIP3     1664     TIP3     H1       HT       0.417000       1.00800           0
     13568 TIP3     1664     TIP3     H2       HT       0.417000       1.00800           0
     13569 TIP3     1665     TIP3     OH2      OT      -0.834000       15.9994           0
     13570 TIP3     1665     TIP3     H1       HT       0.417000       1.00800           0
     13571 TIP3     1665     TIP3     H2       HT       0.417000       1.00800           0
     13572 TIP3     1666     TIP3     OH2      OT      -0.834000       15.9994           0
     13573 TIP3     1666     TIP3     H1       HT       0.417000       1.00800           0
     13574 TIP3     1666     TIP3     H2       HT       0.417000       1.00800           0
     13575 TIP3     1667     TIP3     OH2      OT      -0.834000       15.9994           0
     13576 TIP3     1667     TIP3     H1       HT       0.417000       1.00800           0
     13577 TIP3     1667     TIP3     H2       HT       0.417000       1.00800           0
     13578 TIP3     1668     TIP3     OH2      OT      -0.834000       15.9994           0
     13579 TIP3     1668     TIP3     H1       HT       0.417000       1.00800           0
     13580 TIP3     1668     TIP3     H2       HT       0.417000       1.00800           0
     13581 TIP3     1669     TIP3     OH2      OT      -0.834000       15.9994           0
     13582 TIP3     1669     TIP3     H1       HT       0.417000       1.00800           0
     13583 TIP3     1669     TIP3     H2       HT       0.417000       1.00800           0
     13584 TIP3     1670     TIP3     OH2      OT      -0.834000       15.9994           0
     13585 TIP3     1670     TIP3     H1       HT       0.417000       1.00800           0
     13586 TIP3     1670     TIP3     H2       HT       0.417000       1.00800           0
     13587 TIP3     1671     TIP3     OH2      OT      -0.834000       15.9994           0
     13588 TIP3     1671     TIP3     H1       HT       0.417000       1.00800           0
     13589 TIP3     1671     TIP3     H2       HT       0.417000       1.00800           0
     13590 TIP3     1672     TIP3     OH2      OT      -0.834000       15.9994           0
     13591 TIP3     1672     TIP3     H1       HT       0.417000       1.00800           0
     13592 TIP3     1672     TIP3     H2       HT       0.417000       1.00800           0
     13593 TIP3     1673     TIP3     OH2      OT      -0.834000       15.9994           0
     13594 TIP3     1673     TIP3     H1       HT       0.417000       1.00800           0
     13595 TIP3     1673     TIP3     H2       HT       0.417000       1.00800           0
     13596 TIP3     1674     TIP3     OH2      OT      -0.834000       15.9994           0
     13597 TIP3     1674     TIP3     H1       HT       0.417000       1.00800           0
     13598 TIP3     1674     TIP3     H2       HT       0.417000       1.00800           0
     13599 TIP3     1675     TIP3     OH2      OT      -0.834000       15.9994           0
     13600 TIP3     1675     TIP3     H1       HT       0.417000       1.00800           0
     13601 TIP3     1675     TIP3     H2       HT       0.417000       1.00800           0
     13602 TIP3     1676     TIP3     OH2      OT      -0.834000       15.9994           0
     13603 TIP3     1676     TIP3     H1       HT       0.417000       1.00800           0
     13604 TIP3     1676     TIP3     H2       HT       0.417000       1.00800           0
     13605 TIP3     1677     TIP3     OH2      OT      -0.834000       15.9994           0
     13606 TIP3     1677     TIP3     H1       HT       0.417000       1.00800           0
     13607 TIP3     1677     TIP3     H2       HT       0.417000       1.00800           0
     13608 TIP3     1678     TIP3     OH2      OT      -0.834000       15.9994           0
     13609 TIP3     1678     TIP3     H1       HT       0.417000       1.00800           0
     13610 TIP3     1678     TIP3     H2       HT       0.417000       1.00800           0
     13611 TIP3     1679     TIP3     OH2      OT      -0.834000       15.9994           0
     13612 TIP3     1679     TIP3     H1       HT       0.417000       1.00800           0
     13613 TIP3     1679     TIP3     H2       HT       0.417000       1.00800           0
     13614 TIP3     1680     TIP3     OH2      OT      -0.834000       15.9994           0
     13615 TIP3     1680     TIP3     H1       HT       0.417000       1.00800           0
     13616 TIP3     1680     TIP3     H2       HT       0.417000       1.00800           0
     13617 TIP3     1681     TIP3     OH2      OT      -0.834000       15.9994           0
     13618 TIP3     1681     TIP3     H1       HT       0.417000       1.00800           0
     13619 TIP3     1681     TIP3     H2       HT       0.417000       1.00800           0
     13620 TIP3     1682     TIP3     OH2      OT      -0.834000       15.9994           0
     13621 TIP3     1682     TIP3     H1       HT       0.417000       1.00800           0
     13622 TIP3     1682     TIP3     H2       HT       0.417000       1.00800           0
     13623 TIP3     1683     TIP3     OH2      OT      -0.834000       15.9994           0
     13624 TIP3     1683     TIP3     H1       HT       0.417000       1.00800           0
     13625 TIP3     1683     TIP3     H2       HT       0.417000       1.00800           0
     13626 TIP3     1684     TIP3     OH2      OT      -0.834000       15.9994           0
     13627 TIP3     1684     TIP3     H1       HT       0.417000       1.00800           0
     13628 TIP3     1684     TIP3     H2       HT       0.417000       1.00800           0
     13629 TIP3     1685     TIP3     OH2      OT      -0.834000       15.9994           0
     13630 TIP3     1685     TIP3     H1       HT       0.417000       1.00800           0
     13631 TIP3     1685     TIP3     H2       HT       0.417000       1.00800           0
     13632 TIP3     1686     TIP3     OH2      OT      -0.834000       15.9994           0
     13633 TIP3     1686     TIP3     H1       HT       0.417000       1.00800           0
     13634 TIP3     1686     TIP3     H2       HT       0.417000       1.00800           0
     13635 TIP3     1687     TIP3     OH2      OT      -0.834000       15.9994           0
     13636 TIP3     1687     TIP3     H1       HT       0.417000       1.00800           0
     13637 TIP3     1687     TIP3     H2       HT       0.417000       1.00800           0
     13638 TIP3     1688     TIP3     OH2      OT      -0.834000       15.9994           0
     13639 TIP3     1688     TIP3     H1       HT       0.417000       1.00800           0
     13640 TIP3     1688     TIP3     H2       HT       0.417000       1.00800           0
     13641 TIP3     1689     TIP3     OH2      OT      -0.834000       15.9994           0
     13642 TIP3     1689     TIP3     H1       HT       0.417000       1.00800           0
     13643 TIP3     1689     TIP3     H2       HT       0.417000       1.00800           0
     13644 TIP3     1690     TIP3     OH2      OT      -0.834000       15.9994           0
     13645 TIP3     1690     TIP3     H1       HT       0.417000       1.00800           0
     13646 TIP3     1690     TIP3     H2       HT       0.417000       1.00800           0
     13647 TIP3     1691     TIP3     OH2      OT      -0.834000       15.9994           0
     13648 TIP3     1691     TIP3     H1       HT       0.417000       1.00800           0
     13649 TIP3     1691     TIP3     H2       HT       0.417000       1.00800           0
     13650 TIP3     1692     TIP3     OH2      OT      -0.834000       15.9994           0
     13651 TIP3     1692     TIP3     H1       HT       0.417000       1.00800           0
     13652 TIP3     1692     TIP3     H2       HT       0.417000       1.00800           0
     13653 TIP3     1693     TIP3     OH2      OT      -0.834000       15.9994           0
     13654 TIP3     1693     TIP3     H1       HT       0.417000       1.00800           0
     13655 TIP3     1693     TIP3     H2       HT       0.417000       1.00800           0
     13656 TIP3     1694     TIP3     OH2      OT      -0.834000       15.9994           0
     13657 TIP3     1694     TIP3     H1       HT       0.417000       1.00800           0
     13658 TIP3     1694     TIP3     H2       HT       0.417000       1.00800           0
     13659 TIP3     1695     TIP3     OH2      OT      -0.834000       15.9994           0
     13660 TIP3     1695     TIP3     H1       HT       0.417000       1.00800           0
     13661 TIP3     1695     TIP3     H2       HT       0.417000       1.00800           0
     13662 TIP3     1696     TIP3     OH2      OT      -0.834000       15.9994           0
     13663 TIP3     1696     TIP3     H1       HT       0.417000       1.00800           0
     13664 TIP3     1696     TIP3     H2       HT       0.417000       1.00800           0
     13665 TIP3     1697     TIP3     OH2      OT      -0.834000       15.9994           0
     13666 TIP3     1697     TIP3     H1       HT       0.417000       1.00800           0
     13667 TIP3     1697     TIP3     H2       HT       0.417000       1.00800           0
     13668 TIP3     1698     TIP3     OH2      OT      -0.834000       15.9994           0
     13669 TIP3     1698     TIP3     H1       HT       0.417000       1.00800           0
     13670 TIP3     1698     TIP3     H2       HT       0.417000       1.00800           0
     13671 TIP3     1699     TIP3     OH2      OT      -0.834000       15.9994           0
     13672 TIP3     1699     TIP3     H1       HT       0.417000       1.00800           0
     13673 TIP3     1699     TIP3     H2       HT       0.417000       1.00800           0
     13674 TIP3     1700     TIP3     OH2      OT      -0.834000       15.9994           0
     13675 TIP3     1700     TIP3     H1       HT       0.417000       1.00800           0
     13676 TIP3     1700     TIP3     H2       HT       0.417000       1.00800           0
     13677 TIP3     1701     TIP3     OH2      OT      -0.834000       15.9994           0
     13678 TIP3     1701     TIP3     H1       HT       0.417000       1.00800           0
     13679 TIP3     1701     TIP3     H2       HT       0.417000       1.00800           0
     13680 TIP3     1702     TIP3     OH2      OT      -0.834000       15.9994           0
     13681 TIP3     1702     TIP3     H1       HT       0.417000       1.00800           0
     13682 TIP3     1702     TIP3     H2       HT       0.417000       1.00800           0
     13683 TIP3     1703     TIP3     OH2      OT      -0.834000       15.9994           0
     13684 TIP3     1703     TIP3     H1       HT       0.417000       1.00800           0
     13685 TIP3     1703     TIP3     H2       HT       0.417000       1.00800           0
     13686 TIP3     1704     TIP3     OH2      OT      -0.834000       15.9994           0
     13687 TIP3     1704     TIP3     H1       HT       0.417000       1.00800           0
     13688 TIP3     1704     TIP3     H2       HT       0.417000       1.00800           0
     13689 TIP3     1705     TIP3     OH2      OT      -0.834000       15.9994           0
     13690 TIP3     1705     TIP3     H1       HT       0.417000       1.00800           0
     13691 TIP3     1705     TIP3     H2       HT       0.417000       1.00800           0
     13692 TIP3     1706     TIP3     OH2      OT      -0.834000       15.9994           0
     13693 TIP3     1706     TIP3     H1       HT       0.417000       1.00800           0
     13694 TIP3     1706     TIP3     H2       HT       0.417000       1.00800           0
     13695 TIP3     1707     TIP3     OH2      OT      -0.834000       15.9994           0
     13696 TIP3     1707     TIP3     H1       HT       0.417000       1.00800           0
     13697 TIP3     1707     TIP3     H2       HT       0.417000       1.00800           0
     13698 TIP3     1708     TIP3     OH2      OT      -0.834000       15.9994           0
     13699 TIP3     1708     TIP3     H1       HT       0.417000       1.00800           0
     13700 TIP3     1708     TIP3     H2       HT       0.417000       1.00800           0
     13701 TIP3     1709     TIP3     OH2      OT      -0.834000       15.9994           0
     13702 TIP3     1709     TIP3     H1       HT       0.417000       1.00800           0
     13703 TIP3     1709     TIP3     H2       HT       0.417000       1.00800           0
     13704 TIP3     1710     TIP3     OH2      OT      -0.834000       15.9994           0
     13705 TIP3     1710     TIP3     H1       HT       0.417000       1.00800           0
     13706 TIP3     1710     TIP3     H2       HT       0.417000       1.00800           0
     13707 TIP3     1711     TIP3     OH2      OT      -0.834000       15.9994           0
     13708 TIP3     1711     TIP3     H1       HT       0.417000       1.00800           0
     13709 TIP3     1711     TIP3     H2       HT       0.417000       1.00800           0
     13710 TIP3     1712     TIP3     OH2      OT      -0.834000       15.9994           0
     13711 TIP3     1712     TIP3     H1       HT       0.417000       1.00800           0
     13712 TIP3     1712     TIP3     H2       HT       0.417000       1.00800           0
     13713 TIP3     1713     TIP3     OH2      OT      -0.834000       15.9994           0
     13714 TIP3     1713     TIP3     H1       HT       0.417000       1.00800           0
     13715 TIP3     1713     TIP3     H2       HT       0.417000       1.00800           0
     13716 TIP3     1714     TIP3     OH2      OT      -0.834000       15.9994           0
     13717 TIP3     1714     TIP3     H1       HT       0.417000       1.00800           0
     13718 TIP3     1714     TIP3     H2       HT       0.417000       1.00800           0
     13719 TIP3     1715     TIP3     OH2      OT      -0.834000       15.9994           0
     13720 TIP3     1715     TIP3     H1       HT       0.417000       1.00800           0
     13721 TIP3     1715     TIP3     H2       HT       0.417000       1.00800           0
     13722 TIP3     1716     TIP3     OH2      OT      -0.834000       15.9994           0
     13723 TIP3     1716     TIP3     H1       HT       0.417000       1.00800           0
     13724 TIP3     1716     TIP3     H2       HT       0.417000       1.00800           0
     13725 TIP3     1717     TIP3     OH2      OT      -0.834000       15.9994           0
     13726 TIP3     1717     TIP3     H1       HT       0.417000       1.00800           0
     13727 TIP3     1717     TIP3     H2       HT       0.417000       1.00800           0
     13728 TIP3     1718     TIP3     OH2      OT      -0.834000       15.9994           0
     13729 TIP3     1718     TIP3     H1       HT       0.417000       1.00800           0
     13730 TIP3     1718     TIP3     H2       HT       0.417000       1.00800           0
     13731 TIP3     1719     TIP3     OH2      OT      -0.834000       15.9994           0
     13732 TIP3     1719     TIP3     H1       HT       0.417000       1.00800           0
     13733 TIP3     1719     TIP3     H2       HT       0.417000       1.00800           0
     13734 TIP3     1720     TIP3     OH2      OT      -0.834000       15.9994           0
     13735 TIP3     1720     TIP3     H1       HT       0.417000       1.00800           0
     13736 TIP3     1720     TIP3     H2       HT       0.417000       1.00800           0
     13737 TIP3     1721     TIP3     OH2      OT      -0.834000       15.9994           0
     13738 TIP3     1721     TIP3     H1       HT       0.417000       1.00800           0
     13739 TIP3     1721     TIP3     H2       HT       0.417000       1.00800           0
     13740 TIP3     1722     TIP3     OH2      OT      -0.834000       15.9994           0
     13741 TIP3     1722     TIP3     H1       HT       0.417000       1.00800           0
     13742 TIP3     1722     TIP3     H2       HT       0.417000       1.00800           0
     13743 TIP3     1723     TIP3     OH2      OT      -0.834000       15.9994           0
     13744 TIP3     1723     TIP3     H1       HT       0.417000       1.00800           0
     13745 TIP3     1723     TIP3     H2       HT       0.417000       1.00800           0
     13746 TIP3     1724     TIP3     OH2      OT      -0.834000       15.9994           0
     13747 TIP3     1724     TIP3     H1       HT       0.417000       1.00800           0
     13748 TIP3     1724     TIP3     H2       HT       0.417000       1.00800           0
     13749 TIP3     1725     TIP3     OH2      OT      -0.834000       15.9994           0
     13750 TIP3     1725     TIP3     H1       HT       0.417000       1.00800           0
     13751 TIP3     1725     TIP3     H2       HT       0.417000       1.00800           0
     13752 TIP3     1726     TIP3     OH2      OT      -0.834000       15.9994           0
     13753 TIP3     1726     TIP3     H1       HT       0.417000       1.00800           0
     13754 TIP3     1726     TIP3     H2       HT       0.417000       1.00800           0
     13755 TIP3     1727     TIP3     OH2      OT      -0.834000       15.9994           0
     13756 TIP3     1727     TIP3     H1       HT       0.417000       1.00800           0
     13757 TIP3     1727     TIP3     H2       HT       0.417000       1.00800           0
     13758 TIP3     1728     TIP3     OH2      OT      -0.834000       15.9994           0
     13759 TIP3     1728     TIP3     H1       HT       0.417000       1.00800           0
     13760 TIP3     1728     TIP3     H2       HT       0.417000       1.00800           0
     13761 TIP3     1729     TIP3     OH2      OT      -0.834000       15.9994           0
     13762 TIP3     1729     TIP3     H1       HT       0.417000       1.00800           0
     13763 TIP3     1729     TIP3     H2       HT       0.417000       1.00800           0
     13764 TIP3     1730     TIP3     OH2      OT      -0.834000       15.9994           0
     13765 TIP3     1730     TIP3     H1       HT       0.417000       1.00800           0
     13766 TIP3     1730     TIP3     H2       HT       0.417000       1.00800           0
     13767 TIP3     1731     TIP3     OH2      OT      -0.834000       15.9994           0
     13768 TIP3     1731     TIP3     H1       HT       0.417000       1.00800           0
     13769 TIP3     1731     TIP3     H2       HT       0.417000       1.00800           0
     13770 TIP3     1732     TIP3     OH2      OT      -0.834000       15.9994           0
     13771 TIP3     1732     TIP3     H1       HT       0.417000       1.00800           0
     13772 TIP3     1732     TIP3     H2       HT       0.417000       1.00800           0
     13773 TIP3     1733     TIP3     OH2      OT      -0.834000       15.9994           0
     13774 TIP3     1733     TIP3     H1       HT       0.417000       1.00800           0
     13775 TIP3     1733     TIP3     H2       HT       0.417000       1.00800           0
     13776 TIP3     1734     TIP3     OH2      OT      -0.834000       15.9994           0
     13777 TIP3     1734     TIP3     H1       HT       0.417000       1.00800           0
     13778 TIP3     1734     TIP3     H2       HT       0.417000       1.00800           0
     13779 TIP3     1735     TIP3     OH2      OT      -0.834000       15.9994           0
     13780 TIP3     1735     TIP3     H1       HT       0.417000       1.00800           0
     13781 TIP3     1735     TIP3     H2       HT       0.417000       1.00800           0
     13782 TIP3     1736     TIP3     OH2      OT      -0.834000       15.9994           0
     13783 TIP3     1736     TIP3     H1       HT       0.417000       1.00800           0
     13784 TIP3     1736     TIP3     H2       HT       0.417000       1.00800           0
     13785 TIP3     1737     TIP3     OH2      OT      -0.834000       15.9994           0
     13786 TIP3     1737     TIP3     H1       HT       0.417000       1.00800           0
     13787 TIP3     1737     TIP3     H2       HT       0.417000       1.00800           0
     13788 TIP3     1738     TIP3     OH2      OT      -0.834000       15.9994           0
     13789 TIP3     1738     TIP3     H1       HT       0.417000       1.00800           0
     13790 TIP3     1738     TIP3     H2       HT       0.417000       1.00800           0
     13791 TIP3     1739     TIP3     OH2      OT      -0.834000       15.9994           0
     13792 TIP3     1739     TIP3     H1       HT       0.417000       1.00800           0
     13793 TIP3     1739     TIP3     H2       HT       0.417000       1.00800           0
     13794 TIP3     1740     TIP3     OH2      OT      -0.834000       15.9994           0
     13795 TIP3     1740     TIP3     H1       HT       0.417000       1.00800           0
     13796 TIP3     1740     TIP3     H2       HT       0.417000       1.00800           0
     13797 TIP3     1741     TIP3     OH2      OT      -0.834000       15.9994           0
     13798 TIP3     1741     TIP3     H1       HT       0.417000       1.00800           0
     13799 TIP3     1741     TIP3     H2       HT       0.417000       1.00800           0
     13800 TIP3     1742     TIP3     OH2      OT      -0.834000       15.9994           0
     13801 TIP3     1742     TIP3     H1       HT       0.417000       1.00800           0
     13802 TIP3     1742     TIP3     H2       HT       0.417000       1.00800           0
     13803 TIP3     1743     TIP3     OH2      OT      -0.834000       15.9994           0
     13804 TIP3     1743     TIP3     H1       HT       0.417000       1.00800           0
     13805 TIP3     1743     TIP3     H2       HT       0.417000       1.00800           0
     13806 TIP3     1744     TIP3     OH2      OT      -0.834000       15.9994           0
     13807 TIP3     1744     TIP3     H1       HT       0.417000       1.00800           0
     13808 TIP3     1744     TIP3     H2       HT       0.417000       1.00800           0
     13809 TIP3     1745     TIP3     OH2      OT      -0.834000       15.9994           0
     13810 TIP3     1745     TIP3     H1       HT       0.417000       1.00800           0
     13811 TIP3     1745     TIP3     H2       HT       0.417000       1.00800           0
     13812 TIP3     1746     TIP3     OH2      OT      -0.834000       15.9994           0
     13813 TIP3     1746     TIP3     H1       HT       0.417000       1.00800           0
     13814 TIP3     1746     TIP3     H2       HT       0.417000       1.00800           0
     13815 TIP3     1747     TIP3     OH2      OT      -0.834000       15.9994           0
     13816 TIP3     1747     TIP3     H1       HT       0.417000       1.00800           0
     13817 TIP3     1747     TIP3     H2       HT       0.417000       1.00800           0
     13818 TIP3     1748     TIP3     OH2      OT      -0.834000       15.9994           0
     13819 TIP3     1748     TIP3     H1       HT       0.417000       1.00800           0
     13820 TIP3     1748     TIP3     H2       HT       0.417000       1.00800           0
     13821 TIP3     1749     TIP3     OH2      OT      -0.834000       15.9994           0
     13822 TIP3     1749     TIP3     H1       HT       0.417000       1.00800           0
     13823 TIP3     1749     TIP3     H2       HT       0.417000       1.00800           0
     13824 TIP3     1750     TIP3     OH2      OT      -0.834000       15.9994           0
     13825 TIP3     1750     TIP3     H1       HT       0.417000       1.00800           0
     13826 TIP3     1750     TIP3     H2       HT       0.417000       1.00800           0
     13827 TIP3     1751     TIP3     OH2      OT      -0.834000       15.9994           0
     13828 TIP3     1751     TIP3     H1       HT       0.417000       1.00800           0
     13829 TIP3     1751     TIP3     H2       HT       0.417000       1.00800           0
     13830 TIP3     1752     TIP3     OH2      OT      -0.834000       15.9994           0
     13831 TIP3     1752     TIP3     H1       HT       0.417000       1.00800           0
     13832 TIP3     1752     TIP3     H2       HT       0.417000       1.00800           0
     13833 TIP3     1753     TIP3     OH2      OT      -0.834000       15.9994           0
     13834 TIP3     1753     TIP3     H1       HT       0.417000       1.00800           0
     13835 TIP3     1753     TIP3     H2       HT       0.417000       1.00800           0
     13836 TIP3     1754     TIP3     OH2      OT      -0.834000       15.9994           0
     13837 TIP3     1754     TIP3     H1       HT       0.417000       1.00800           0
     13838 TIP3     1754     TIP3     H2       HT       0.417000       1.00800           0
     13839 TIP3     1755     TIP3     OH2      OT      -0.834000       15.9994           0
     13840 TIP3     1755     TIP3     H1       HT       0.417000       1.00800           0
     13841 TIP3     1755     TIP3     H2       HT       0.417000       1.00800           0
     13842 TIP3     1756     TIP3     OH2      OT      -0.834000       15.9994           0
     13843 TIP3     1756     TIP3     H1       HT       0.417000       1.00800           0
     13844 TIP3     1756     TIP3     H2       HT       0.417000       1.00800           0
     13845 TIP3     1757     TIP3     OH2      OT      -0.834000       15.9994           0
     13846 TIP3     1757     TIP3     H1       HT       0.417000       1.00800           0
     13847 TIP3     1757     TIP3     H2       HT       0.417000       1.00800           0
     13848 TIP3     1758     TIP3     OH2      OT      -0.834000       15.9994           0
     13849 TIP3     1758     TIP3     H1       HT       0.417000       1.00800           0
     13850 TIP3     1758     TIP3     H2       HT       0.417000       1.00800           0
     13851 TIP3     1759     TIP3     OH2      OT      -0.834000       15.9994           0
     13852 TIP3     1759     TIP3     H1       HT       0.417000       1.00800           0
     13853 TIP3     1759     TIP3     H2       HT       0.417000       1.00800           0
     13854 TIP3     1760     TIP3     OH2      OT      -0.834000       15.9994           0
     13855 TIP3     1760     TIP3     H1       HT       0.417000       1.00800           0
     13856 TIP3     1760     TIP3     H2       HT       0.417000       1.00800           0
     13857 TIP3     1761     TIP3     OH2      OT      -0.834000       15.9994           0
     13858 TIP3     1761     TIP3     H1       HT       0.417000       1.00800           0
     13859 TIP3     1761     TIP3     H2       HT       0.417000       1.00800           0
     13860 TIP3     1762     TIP3     OH2      OT      -0.834000       15.9994           0
     13861 TIP3     1762     TIP3     H1       HT       0.417000       1.00800           0
     13862 TIP3     1762     TIP3     H2       HT       0.417000       1.00800           0
     13863 TIP3     1763     TIP3     OH2      OT      -0.834000       15.9994           0
     13864 TIP3     1763     TIP3     H1       HT       0.417000       1.00800           0
     13865 TIP3     1763     TIP3     H2       HT       0.417000       1.00800           0
     13866 TIP3     1764     TIP3     OH2      OT      -0.834000       15.9994           0
     13867 TIP3     1764     TIP3     H1       HT       0.417000       1.00800           0
     13868 TIP3     1764     TIP3     H2       HT       0.417000       1.00800           0
     13869 TIP3     1765     TIP3     OH2      OT      -0.834000       15.9994           0
     13870 TIP3     1765     TIP3     H1       HT       0.417000       1.00800           0
     13871 TIP3     1765     TIP3     H2       HT       0.417000       1.00800           0
     13872 TIP3     1766     TIP3     OH2      OT      -0.834000       15.9994           0
     13873 TIP3     1766     TIP3     H1       HT       0.417000       1.00800           0
     13874 TIP3     1766     TIP3     H2       HT       0.417000       1.00800           0
     13875 TIP3     1767     TIP3     OH2      OT      -0.834000       15.9994           0
     13876 TIP3     1767     TIP3     H1       HT       0.417000       1.00800           0
     13877 TIP3     1767     TIP3     H2       HT       0.417000       1.00800           0
     13878 TIP3     1768     TIP3     OH2      OT      -0.834000       15.9994           0
     13879 TIP3     1768     TIP3     H1       HT       0.417000       1.00800           0
     13880 TIP3     1768     TIP3     H2       HT       0.417000       1.00800           0
     13881 TIP3     1769     TIP3     OH2      OT      -0.834000       15.9994           0
     13882 TIP3     1769     TIP3     H1       HT       0.417000       1.00800           0
     13883 TIP3     1769     TIP3     H2       HT       0.417000       1.00800           0
     13884 TIP3     1770     TIP3     OH2      OT      -0.834000       15.9994           0
     13885 TIP3     1770     TIP3     H1       HT       0.417000       1.00800           0
     13886 TIP3     1770     TIP3     H2       HT       0.417000       1.00800           0
     13887 TIP3     1771     TIP3     OH2      OT      -0.834000       15.9994           0
     13888 TIP3     1771     TIP3     H1       HT       0.417000       1.00800           0
     13889 TIP3     1771     TIP3     H2       HT       0.417000       1.00800           0
     13890 TIP3     1772     TIP3     OH2      OT      -0.834000       15.9994           0
     13891 TIP3     1772     TIP3     H1       HT       0.417000       1.00800           0
     13892 TIP3     1772     TIP3     H2       HT       0.417000       1.00800           0
     13893 TIP3     1773     TIP3     OH2      OT      -0.834000       15.9994           0
     13894 TIP3     1773     TIP3     H1       HT       0.417000       1.00800           0
     13895 TIP3     1773     TIP3     H2       HT       0.417000       1.00800           0
     13896 TIP3     1774     TIP3     OH2      OT      -0.834000       15.9994           0
     13897 TIP3     1774     TIP3     H1       HT       0.417000       1.00800           0
     13898 TIP3     1774     TIP3     H2       HT       0.417000       1.00800           0
     13899 TIP3     1775     TIP3     OH2      OT      -0.834000       15.9994           0
     13900 TIP3     1775     TIP3     H1       HT       0.417000       1.00800           0
     13901 TIP3     1775     TIP3     H2       HT       0.417000       1.00800           0
     13902 TIP3     1776     TIP3     OH2      OT      -0.834000       15.9994           0
     13903 TIP3     1776     TIP3     H1       HT       0.417000       1.00800           0
     13904 TIP3     1776     TIP3     H2       HT       0.417000       1.00800           0
     13905 TIP3     1777     TIP3     OH2      OT      -0.834000       15.9994           0
     13906 TIP3     1777     TIP3     H1       HT       0.417000       1.00800           0
     13907 TIP3     1777     TIP3     H2       HT       0.417000       1.00800           0
     13908 TIP3     1778     TIP3     OH2      OT      -0.834000       15.9994           0
     13909 TIP3     1778     TIP3     H1       HT       0.417000       1.00800           0
     13910 TIP3     1778     TIP3     H2       HT       0.417000       1.00800           0
     13911 TIP3     1779     TIP3     OH2      OT      -0.834000       15.9994           0
     13912 TIP3     1779     TIP3     H1       HT       0.417000       1.00800           0
     13913 TIP3     1779     TIP3     H2       HT       0.417000       1.00800           0
     13914 TIP3     1780     TIP3     OH2      OT      -0.834000       15.9994           0
     13915 TIP3     1780     TIP3     H1       HT       0.417000       1.00800           0
     13916 TIP3     1780     TIP3     H2       HT       0.417000       1.00800           0
     13917 TIP3     1781     TIP3     OH2      OT      -0.834000       15.9994           0
     13918 TIP3     1781     TIP3     H1       HT       0.417000       1.00800           0
     13919 TIP3     1781     TIP3     H2       HT       0.417000       1.00800           0
     13920 TIP3     1782     TIP3     OH2      OT      -0.834000       15.9994           0
     13921 TIP3     1782     TIP3     H1       HT       0.417000       1.00800           0
     13922 TIP3     1782     TIP3     H2       HT       0.417000       1.00800           0
     13923 TIP3     1783     TIP3     OH2      OT      -0.834000       15.9994           0
     13924 TIP3     1783     TIP3     H1       HT       0.417000       1.00800           0
     13925 TIP3     1783     TIP3     H2       HT       0.417000       1.00800           0
     13926 TIP3     1784     TIP3     OH2      OT      -0.834000       15.9994           0
     13927 TIP3     1784     TIP3     H1       HT       0.417000       1.00800           0
     13928 TIP3     1784     TIP3     H2       HT       0.417000       1.00800           0
     13929 TIP3     1785     TIP3     OH2      OT      -0.834000       15.9994           0
     13930 TIP3     1785     TIP3     H1       HT       0.417000       1.00800           0
     13931 TIP3     1785     TIP3     H2       HT       0.417000       1.00800           0
     13932 TIP3     1786     TIP3     OH2      OT      -0.834000       15.9994           0
     13933 TIP3     1786     TIP3     H1       HT       0.417000       1.00800           0
     13934 TIP3     1786     TIP3     H2       HT       0.417000       1.00800           0
     13935 TIP3     1787     TIP3     OH2      OT      -0.834000       15.9994           0
     13936 TIP3     1787     TIP3     H1       HT       0.417000       1.00800           0
     13937 TIP3     1787     TIP3     H2       HT       0.417000       1.00800           0
     13938 TIP3     1788     TIP3     OH2      OT      -0.834000       15.9994           0
     13939 TIP3     1788     TIP3     H1       HT       0.417000       1.00800           0
     13940 TIP3     1788     TIP3     H2       HT       0.417000       1.00800           0
     13941 TIP3     1789     TIP3     OH2      OT      -0.834000       15.9994           0
     13942 TIP3     1789     TIP3     H1       HT       0.417000       1.00800           0
     13943 TIP3     1789     TIP3     H2       HT       0.417000       1.00800           0
     13944 TIP3     1790     TIP3     OH2      OT      -0.834000       15.9994           0
     13945 TIP3     1790     TIP3     H1       HT       0.417000       1.00800           0
     13946 TIP3     1790     TIP3     H2       HT       0.417000       1.00800           0
     13947 TIP3     1791     TIP3     OH2      OT      -0.834000       15.9994           0
     13948 TIP3     1791     TIP3     H1       HT       0.417000       1.00800           0
     13949 TIP3     1791     TIP3     H2       HT       0.417000       1.00800           0
     13950 TIP3     1792     TIP3     OH2      OT      -0.834000       15.9994           0
     13951 TIP3     1792     TIP3     H1       HT       0.417000       1.00800           0
     13952 TIP3     1792     TIP3     H2       HT       0.417000       1.00800           0
     13953 TIP3     1793     TIP3     OH2      OT      -0.834000       15.9994           0
     13954 TIP3     1793     TIP3     H1       HT       0.417000       1.00800           0
     13955 TIP3     1793     TIP3     H2       HT       0.417000       1.00800           0
     13956 TIP3     1794     TIP3     OH2      OT      -0.834000       15.9994           0
     13957 TIP3     1794     TIP3     H1       HT       0.417000       1.00800           0
     13958 TIP3     1794     TIP3     H2       HT       0.417000       1.00800           0
     13959 TIP3     1795     TIP3     OH2      OT      -0.834000       15.9994           0
     13960 TIP3     1795     TIP3     H1       HT       0.417000       1.00800           0
     13961 TIP3     1795     TIP3     H2       HT       0.417000       1.00800           0
     13962 TIP3     1796     TIP3     OH2      OT      -0.834000       15.9994           0
     13963 TIP3     1796     TIP3     H1       HT       0.417000       1.00800           0
     13964 TIP3     1796     TIP3     H2       HT       0.417000       1.00800           0
     13965 TIP3     1797     TIP3     OH2      OT      -0.834000       15.9994           0
     13966 TIP3     1797     TIP3     H1       HT       0.417000       1.00800           0
     13967 TIP3     1797     TIP3     H2       HT       0.417000       1.00800           0
     13968 TIP3     1798     TIP3     OH2      OT      -0.834000       15.9994           0
     13969 TIP3     1798     TIP3     H1       HT       0.417000       1.00800           0
     13970 TIP3     1798     TIP3     H2       HT       0.417000       1.00800           0
     13971 TIP3     1799     TIP3     OH2      OT      -0.834000       15.9994           0
     13972 TIP3     1799     TIP3     H1       HT       0.417000       1.00800           0
     13973 TIP3     1799     TIP3     H2       HT       0.417000       1.00800           0
     13974 TIP3     1800     TIP3     OH2      OT      -0.834000       15.9994           0
     13975 TIP3     1800     TIP3     H1       HT       0.417000       1.00800           0
     13976 TIP3     1800     TIP3     H2       HT       0.417000       1.00800           0
     13977 TIP3     1801     TIP3     OH2      OT      -0.834000       15.9994           0
     13978 TIP3     1801     TIP3     H1       HT       0.417000       1.00800           0
     13979 TIP3     1801     TIP3     H2       HT       0.417000       1.00800           0
     13980 TIP3     1802     TIP3     OH2      OT      -0.834000       15.9994           0
     13981 TIP3     1802     TIP3     H1       HT       0.417000       1.00800           0
     13982 TIP3     1802     TIP3     H2       HT       0.417000       1.00800           0
     13983 TIP3     1803     TIP3     OH2      OT      -0.834000       15.9994           0
     13984 TIP3     1803     TIP3     H1       HT       0.417000       1.00800           0
     13985 TIP3     1803     TIP3     H2       HT       0.417000       1.00800           0
     13986 TIP3     1804     TIP3     OH2      OT      -0.834000       15.9994           0
     13987 TIP3     1804     TIP3     H1       HT       0.417000       1.00800           0
     13988 TIP3     1804     TIP3     H2       HT       0.417000       1.00800           0
     13989 TIP3     1805     TIP3     OH2      OT      -0.834000       15.9994           0
     13990 TIP3     1805     TIP3     H1       HT       0.417000       1.00800           0
     13991 TIP3     1805     TIP3     H2       HT       0.417000       1.00800           0
     13992 TIP3     1806     TIP3     OH2      OT      -0.834000       15.9994           0
     13993 TIP3     1806     TIP3     H1       HT       0.417000       1.00800           0
     13994 TIP3     1806     TIP3     H2       HT       0.417000       1.00800           0
     13995 TIP3     1807     TIP3     OH2      OT      -0.834000       15.9994           0
     13996 TIP3     1807     TIP3     H1       HT       0.417000       1.00800           0
     13997 TIP3     1807     TIP3     H2       HT       0.417000       1.00800           0
     13998 TIP3     1808     TIP3     OH2      OT      -0.834000       15.9994           0
     13999 TIP3     1808     TIP3     H1       HT       0.417000       1.00800           0
     14000 TIP3     1808     TIP3     H2       HT       0.417000       1.00800           0
     14001 TIP3     1809     TIP3     OH2      OT      -0.834000       15.9994           0
     14002 TIP3     1809     TIP3     H1       HT       0.417000       1.00800           0
     14003 TIP3     1809     TIP3     H2       HT       0.417000       1.00800           0
     14004 TIP3     1810     TIP3     OH2      OT      -0.834000       15.9994           0
     14005 TIP3     1810     TIP3     H1       HT       0.417000       1.00800           0
     14006 TIP3     1810     TIP3     H2       HT       0.417000       1.00800           0
     14007 TIP3     1811     TIP3     OH2      OT      -0.834000       15.9994           0
     14008 TIP3     1811     TIP3     H1       HT       0.417000       1.00800           0
     14009 TIP3     1811     TIP3     H2       HT       0.417000       1.00800           0
     14010 TIP3     1812     TIP3     OH2      OT      -0.834000       15.9994           0
     14011 TIP3     1812     TIP3     H1       HT       0.417000       1.00800           0
     14012 TIP3     1812     TIP3     H2       HT       0.417000       1.00800           0
     14013 TIP3     1813     TIP3     OH2      OT      -0.834000       15.9994           0
     14014 TIP3     1813     TIP3     H1       HT       0.417000       1.00800           0
     14015 TIP3     1813     TIP3     H2       HT       0.417000       1.00800           0
     14016 TIP3     1814     TIP3     OH2      OT      -0.834000       15.9994           0
     14017 TIP3     1814     TIP3     H1       HT       0.417000       1.00800           0
     14018 TIP3     1814     TIP3     H2       HT       0.417000       1.00800           0
     14019 TIP3     1815     TIP3     OH2      OT      -0.834000       15.9994           0
     14020 TIP3     1815     TIP3     H1       HT       0.417000       1.00800           0
     14021 TIP3     1815     TIP3     H2       HT       0.417000       1.00800           0
     14022 TIP3     1816     TIP3     OH2      OT      -0.834000       15.9994           0
     14023 TIP3     1816     TIP3     H1       HT       0.417000       1.00800           0
     14024 TIP3     1816     TIP3     H2       HT       0.417000       1.00800           0
     14025 TIP3     1817     TIP3     OH2      OT      -0.834000       15.9994           0
     14026 TIP3     1817     TIP3     H1       HT       0.417000       1.00800           0
     14027 TIP3     1817     TIP3     H2       HT       0.417000       1.00800           0
     14028 TIP3     1818     TIP3     OH2      OT      -0.834000       15.9994           0
     14029 TIP3     1818     TIP3     H1       HT       0.417000       1.00800           0
     14030 TIP3     1818     TIP3     H2       HT       0.417000       1.00800           0
     14031 TIP3     1819     TIP3     OH2      OT      -0.834000       15.9994           0
     14032 TIP3     1819     TIP3     H1       HT       0.417000       1.00800           0
     14033 TIP3     1819     TIP3     H2       HT       0.417000       1.00800           0
     14034 TIP3     1820     TIP3     OH2      OT      -0.834000       15.9994           0
     14035 TIP3     1820     TIP3     H1       HT       0.417000       1.00800           0
     14036 TIP3     1820     TIP3     H2       HT       0.417000       1.00800           0
     14037 TIP3     1821     TIP3     OH2      OT      -0.834000       15.9994           0
     14038 TIP3     1821     TIP3     H1       HT       0.417000       1.00800           0
     14039 TIP3     1821     TIP3     H2       HT       0.417000       1.00800           0
     14040 TIP3     1822     TIP3     OH2      OT      -0.834000       15.9994           0
     14041 TIP3     1822     TIP3     H1       HT       0.417000       1.00800           0
     14042 TIP3     1822     TIP3     H2       HT       0.417000       1.00800           0
     14043 TIP3     1823     TIP3     OH2      OT      -0.834000       15.9994           0
     14044 TIP3     1823     TIP3     H1       HT       0.417000       1.00800           0
     14045 TIP3     1823     TIP3     H2       HT       0.417000       1.00800           0
     14046 TIP3     1824     TIP3     OH2      OT      -0.834000       15.9994           0
     14047 TIP3     1824     TIP3     H1       HT       0.417000       1.00800           0
     14048 TIP3     1824     TIP3     H2       HT       0.417000       1.00800           0
     14049 TIP3     1825     TIP3     OH2      OT      -0.834000       15.9994           0
     14050 TIP3     1825     TIP3     H1       HT       0.417000       1.00800           0
     14051 TIP3     1825     TIP3     H2       HT       0.417000       1.00800           0
     14052 TIP3     1826     TIP3     OH2      OT      -0.834000       15.9994           0
     14053 TIP3     1826     TIP3     H1       HT       0.417000       1.00800           0
     14054 TIP3     1826     TIP3     H2       HT       0.417000       1.00800           0
     14055 TIP3     1827     TIP3     OH2      OT      -0.834000       15.9994           0
     14056 TIP3     1827     TIP3     H1       HT       0.417000       1.00800           0
     14057 TIP3     1827     TIP3     H2       HT       0.417000       1.00800           0
     14058 TIP3     1828     TIP3     OH2      OT      -0.834000       15.9994           0
     14059 TIP3     1828     TIP3     H1       HT       0.417000       1.00800           0
     14060 TIP3     1828     TIP3     H2       HT       0.417000       1.00800           0
     14061 TIP3     1829     TIP3     OH2      OT      -0.834000       15.9994           0
     14062 TIP3     1829     TIP3     H1       HT       0.417000       1.00800           0
     14063 TIP3     1829     TIP3     H2       HT       0.417000       1.00800           0
     14064 TIP3     1830     TIP3     OH2      OT      -0.834000       15.9994           0
     14065 TIP3     1830     TIP3     H1       HT       0.417000       1.00800           0
     14066 TIP3     1830     TIP3     H2       HT       0.417000       1.00800           0
     14067 TIP3     1831     TIP3     OH2      OT      -0.834000       15.9994           0
     14068 TIP3     1831     TIP3     H1       HT       0.417000       1.00800           0
     14069 TIP3     1831     TIP3     H2       HT       0.417000       1.00800           0
     14070 TIP3     1832     TIP3     OH2      OT      -0.834000       15.9994           0
     14071 TIP3     1832     TIP3     H1       HT       0.417000       1.00800           0
     14072 TIP3     1832     TIP3     H2       HT       0.417000       1.00800           0
     14073 TIP3     1833     TIP3     OH2      OT      -0.834000       15.9994           0
     14074 TIP3     1833     TIP3     H1       HT       0.417000       1.00800           0
     14075 TIP3     1833     TIP3     H2       HT       0.417000       1.00800           0
     14076 TIP3     1834     TIP3     OH2      OT      -0.834000       15.9994           0
     14077 TIP3     1834     TIP3     H1       HT       0.417000       1.00800           0
     14078 TIP3     1834     TIP3     H2       HT       0.417000       1.00800           0
     14079 TIP3     1835     TIP3     OH2      OT      -0.834000       15.9994           0
     14080 TIP3     1835     TIP3     H1       HT       0.417000       1.00800           0
     14081 TIP3     1835     TIP3     H2       HT       0.417000       1.00800           0
     14082 TIP3     1836     TIP3     OH2      OT      -0.834000       15.9994           0
     14083 TIP3     1836     TIP3     H1       HT       0.417000       1.00800           0
     14084 TIP3     1836     TIP3     H2       HT       0.417000       1.00800           0
     14085 TIP3     1837     TIP3     OH2      OT      -0.834000       15.9994           0
     14086 TIP3     1837     TIP3     H1       HT       0.417000       1.00800           0
     14087 TIP3     1837     TIP3     H2       HT       0.417000       1.00800           0
     14088 TIP3     1838     TIP3     OH2      OT      -0.834000       15.9994           0
     14089 TIP3     1838     TIP3     H1       HT       0.417000       1.00800           0
     14090 TIP3     1838     TIP3     H2       HT       0.417000       1.00800           0
     14091 TIP3     1839     TIP3     OH2      OT      -0.834000       15.9994           0
     14092 TIP3     1839     TIP3     H1       HT       0.417000       1.00800           0
     14093 TIP3     1839     TIP3     H2       HT       0.417000       1.00800           0
     14094 TIP3     1840     TIP3     OH2      OT      -0.834000       15.9994           0
     14095 TIP3     1840     TIP3     H1       HT       0.417000       1.00800           0
     14096 TIP3     1840     TIP3     H2       HT       0.417000       1.00800           0
     14097 TIP3     1841     TIP3     OH2      OT      -0.834000       15.9994           0
     14098 TIP3     1841     TIP3     H1       HT       0.417000       1.00800           0
     14099 TIP3     1841     TIP3     H2       HT       0.417000       1.00800           0
     14100 TIP3     1842     TIP3     OH2      OT      -0.834000       15.9994           0
     14101 TIP3     1842     TIP3     H1       HT       0.417000       1.00800           0
     14102 TIP3     1842     TIP3     H2       HT       0.417000       1.00800           0
     14103 TIP3     1843     TIP3     OH2      OT      -0.834000       15.9994           0
     14104 TIP3     1843     TIP3     H1       HT       0.417000       1.00800           0
     14105 TIP3     1843     TIP3     H2       HT       0.417000       1.00800           0
     14106 TIP3     1844     TIP3     OH2      OT      -0.834000       15.9994           0
     14107 TIP3     1844     TIP3     H1       HT       0.417000       1.00800           0
     14108 TIP3     1844     TIP3     H2       HT       0.417000       1.00800           0
     14109 TIP3     1845     TIP3     OH2      OT      -0.834000       15.9994           0
     14110 TIP3     1845     TIP3     H1       HT       0.417000       1.00800           0
     14111 TIP3     1845     TIP3     H2       HT       0.417000       1.00800           0
     14112 TIP3     1846     TIP3     OH2      OT      -0.834000       15.9994           0
     14113 TIP3     1846     TIP3     H1       HT       0.417000       1.00800           0
     14114 TIP3     1846     TIP3     H2       HT       0.417000       1.00800           0
     14115 TIP3     1847     TIP3     OH2      OT      -0.834000       15.9994           0
     14116 TIP3     1847     TIP3     H1       HT       0.417000       1.00800           0
     14117 TIP3     1847     TIP3     H2       HT       0.417000       1.00800           0
     14118 TIP3     1848     TIP3     OH2      OT      -0.834000       15.9994           0
     14119 TIP3     1848     TIP3     H1       HT       0.417000       1.00800           0
     14120 TIP3     1848     TIP3     H2       HT       0.417000       1.00800           0
     14121 TIP3     1849     TIP3     OH2      OT      -0.834000       15.9994           0
     14122 TIP3     1849     TIP3     H1       HT       0.417000       1.00800           0
     14123 TIP3     1849     TIP3     H2       HT       0.417000       1.00800           0
     14124 TIP3     1850     TIP3     OH2      OT      -0.834000       15.9994           0
     14125 TIP3     1850     TIP3     H1       HT       0.417000       1.00800           0
     14126 TIP3     1850     TIP3     H2       HT       0.417000       1.00800           0
     14127 TIP3     1851     TIP3     OH2      OT      -0.834000       15.9994           0
     14128 TIP3     1851     TIP3     H1       HT       0.417000       1.00800           0
     14129 TIP3     1851     TIP3     H2       HT       0.417000       1.00800           0
     14130 TIP3     1852     TIP3     OH2      OT      -0.834000       15.9994           0
     14131 TIP3     1852     TIP3     H1       HT       0.417000       1.00800           0
     14132 TIP3     1852     TIP3     H2       HT       0.417000       1.00800           0
     14133 TIP3     1853     TIP3     OH2      OT      -0.834000       15.9994           0
     14134 TIP3     1853     TIP3     H1       HT       0.417000       1.00800           0
     14135 TIP3     1853     TIP3     H2       HT       0.417000       1.00800           0
     14136 TIP3     1854     TIP3     OH2      OT      -0.834000       15.9994           0
     14137 TIP3     1854     TIP3     H1       HT       0.417000       1.00800           0
     14138 TIP3     1854     TIP3     H2       HT       0.417000       1.00800           0
     14139 TIP3     1855     TIP3     OH2      OT      -0.834000       15.9994           0
     14140 TIP3     1855     TIP3     H1       HT       0.417000       1.00800           0
     14141 TIP3     1855     TIP3     H2       HT       0.417000       1.00800           0
     14142 TIP3     1856     TIP3     OH2      OT      -0.834000       15.9994           0
     14143 TIP3     1856     TIP3     H1       HT       0.417000       1.00800           0
     14144 TIP3     1856     TIP3     H2       HT       0.417000       1.00800           0
     14145 TIP3     1857     TIP3     OH2      OT      -0.834000       15.9994           0
     14146 TIP3     1857     TIP3     H1       HT       0.417000       1.00800           0
     14147 TIP3     1857     TIP3     H2       HT       0.417000       1.00800           0
     14148 TIP3     1858     TIP3     OH2      OT      -0.834000       15.9994           0
     14149 TIP3     1858     TIP3     H1       HT       0.417000       1.00800           0
     14150 TIP3     1858     TIP3     H2       HT       0.417000       1.00800           0
     14151 TIP3     1859     TIP3     OH2      OT      -0.834000       15.9994           0
     14152 TIP3     1859     TIP3     H1       HT       0.417000       1.00800           0
     14153 TIP3     1859     TIP3     H2       HT       0.417000       1.00800           0
     14154 TIP3     1860     TIP3     OH2      OT      -0.834000       15.9994           0
     14155 TIP3     1860     TIP3     H1       HT       0.417000       1.00800           0
     14156 TIP3     1860     TIP3     H2       HT       0.417000       1.00800           0
     14157 TIP3     1861     TIP3     OH2      OT      -0.834000       15.9994           0
     14158 TIP3     1861     TIP3     H1       HT       0.417000       1.00800           0
     14159 TIP3     1861     TIP3     H2       HT       0.417000       1.00800           0
     14160 TIP3     1862     TIP3     OH2      OT      -0.834000       15.9994           0
     14161 TIP3     1862     TIP3     H1       HT       0.417000       1.00800           0
     14162 TIP3     1862     TIP3     H2       HT       0.417000       1.00800           0
     14163 TIP3     1863     TIP3     OH2      OT      -0.834000       15.9994           0
     14164 TIP3     1863     TIP3     H1       HT       0.417000       1.00800           0
     14165 TIP3     1863     TIP3     H2       HT       0.417000       1.00800           0
     14166 TIP3     1864     TIP3     OH2      OT      -0.834000       15.9994           0
     14167 TIP3     1864     TIP3     H1       HT       0.417000       1.00800           0
     14168 TIP3     1864     TIP3     H2       HT       0.417000       1.00800           0
     14169 TIP3     1865     TIP3     OH2      OT      -0.834000       15.9994           0
     14170 TIP3     1865     TIP3     H1       HT       0.417000       1.00800           0
     14171 TIP3     1865     TIP3     H2       HT       0.417000       1.00800           0
     14172 TIP3     1866     TIP3     OH2      OT      -0.834000       15.9994           0
     14173 TIP3     1866     TIP3     H1       HT       0.417000       1.00800           0
     14174 TIP3     1866     TIP3     H2       HT       0.417000       1.00800           0
     14175 TIP3     1867     TIP3     OH2      OT      -0.834000       15.9994           0
     14176 TIP3     1867     TIP3     H1       HT       0.417000       1.00800           0
     14177 TIP3     1867     TIP3     H2       HT       0.417000       1.00800           0
     14178 TIP3     1868     TIP3     OH2      OT      -0.834000       15.9994           0
     14179 TIP3     1868     TIP3     H1       HT       0.417000       1.00800           0
     14180 TIP3     1868     TIP3     H2       HT       0.417000       1.00800           0
     14181 TIP3     1869     TIP3     OH2      OT      -0.834000       15.9994           0
     14182 TIP3     1869     TIP3     H1       HT       0.417000       1.00800           0
     14183 TIP3     1869     TIP3     H2       HT       0.417000       1.00800           0
     14184 TIP3     1870     TIP3     OH2      OT      -0.834000       15.9994           0
     14185 TIP3     1870     TIP3     H1       HT       0.417000       1.00800           0
     14186 TIP3     1870     TIP3     H2       HT       0.417000       1.00800           0
     14187 TIP3     1871     TIP3     OH2      OT      -0.834000       15.9994           0
     14188 TIP3     1871     TIP3     H1       HT       0.417000       1.00800           0
     14189 TIP3     1871     TIP3     H2       HT       0.417000       1.00800           0
     14190 TIP3     1872     TIP3     OH2      OT      -0.834000       15.9994           0
     14191 TIP3     1872     TIP3     H1       HT       0.417000       1.00800           0
     14192 TIP3     1872     TIP3     H2       HT       0.417000       1.00800           0
     14193 TIP3     1873     TIP3     OH2      OT      -0.834000       15.9994           0
     14194 TIP3     1873     TIP3     H1       HT       0.417000       1.00800           0
     14195 TIP3     1873     TIP3     H2       HT       0.417000       1.00800           0
     14196 TIP3     1874     TIP3     OH2      OT      -0.834000       15.9994           0
     14197 TIP3     1874     TIP3     H1       HT       0.417000       1.00800           0
     14198 TIP3     1874     TIP3     H2       HT       0.417000       1.00800           0
     14199 TIP3     1875     TIP3     OH2      OT      -0.834000       15.9994           0
     14200 TIP3     1875     TIP3     H1       HT       0.417000       1.00800           0
     14201 TIP3     1875     TIP3     H2       HT       0.417000       1.00800           0
     14202 TIP3     1876     TIP3     OH2      OT      -0.834000       15.9994           0
     14203 TIP3     1876     TIP3     H1       HT       0.417000       1.00800           0
     14204 TIP3     1876     TIP3     H2       HT       0.417000       1.00800           0
     14205 TIP3     1877     TIP3     OH2      OT      -0.834000       15.9994           0
     14206 TIP3     1877     TIP3     H1       HT       0.417000       1.00800           0
     14207 TIP3     1877     TIP3     H2       HT       0.417000       1.00800           0
     14208 TIP3     1878     TIP3     OH2      OT      -0.834000       15.9994           0
     14209 TIP3     1878     TIP3     H1       HT       0.417000       1.00800           0
     14210 TIP3     1878     TIP3     H2       HT       0.417000       1.00800           0
     14211 TIP3     1879     TIP3     OH2      OT      -0.834000       15.9994           0
     14212 TIP3     1879     TIP3     H1       HT       0.417000       1.00800           0
     14213 TIP3     1879     TIP3     H2       HT       0.417000       1.00800           0
     14214 TIP3     1880     TIP3     OH2      OT      -0.834000       15.9994           0
     14215 TIP3     1880     TIP3     H1       HT       0.417000       1.00800           0
     14216 TIP3     1880     TIP3     H2       HT       0.417000       1.00800           0
     14217 TIP3     1881     TIP3     OH2      OT      -0.834000       15.9994           0
     14218 TIP3     1881     TIP3     H1       HT       0.417000       1.00800           0
     14219 TIP3     1881     TIP3     H2       HT       0.417000       1.00800           0
     14220 TIP3     1882     TIP3     OH2      OT      -0.834000       15.9994           0
     14221 TIP3     1882     TIP3     H1       HT       0.417000       1.00800           0
     14222 TIP3     1882     TIP3     H2       HT       0.417000       1.00800           0
     14223 TIP3     1883     TIP3     OH2      OT      -0.834000       15.9994           0
     14224 TIP3     1883     TIP3     H1       HT       0.417000       1.00800           0
     14225 TIP3     1883     TIP3     H2       HT       0.417000       1.00800           0
     14226 TIP3     1884     TIP3     OH2      OT      -0.834000       15.9994           0
     14227 TIP3     1884     TIP3     H1       HT       0.417000       1.00800           0
     14228 TIP3     1884     TIP3     H2       HT       0.417000       1.00800           0
     14229 TIP3     1885     TIP3     OH2      OT      -0.834000       15.9994           0
     14230 TIP3     1885     TIP3     H1       HT       0.417000       1.00800           0
     14231 TIP3     1885     TIP3     H2       HT       0.417000       1.00800           0
     14232 TIP3     1886     TIP3     OH2      OT      -0.834000       15.9994           0
     14233 TIP3     1886     TIP3     H1       HT       0.417000       1.00800           0
     14234 TIP3     1886     TIP3     H2       HT       0.417000       1.00800           0
     14235 TIP3     1887     TIP3     OH2      OT      -0.834000       15.9994           0
     14236 TIP3     1887     TIP3     H1       HT       0.417000       1.00800           0
     14237 TIP3     1887     TIP3     H2       HT       0.417000       1.00800           0
     14238 TIP3     1888     TIP3     OH2      OT      -0.834000       15.9994           0
     14239 TIP3     1888     TIP3     H1       HT       0.417000       1.00800           0
     14240 TIP3     1888     TIP3     H2       HT       0.417000       1.00800           0
     14241 TIP3     1889     TIP3     OH2      OT      -0.834000       15.9994           0
     14242 TIP3     1889     TIP3     H1       HT       0.417000       1.00800           0
     14243 TIP3     1889     TIP3     H2       HT       0.417000       1.00800           0
     14244 TIP3     1890     TIP3     OH2      OT      -0.834000       15.9994           0
     14245 TIP3     1890     TIP3     H1       HT       0.417000       1.00800           0
     14246 TIP3     1890     TIP3     H2       HT       0.417000       1.00800           0
     14247 TIP3     1891     TIP3     OH2      OT      -0.834000       15.9994           0
     14248 TIP3     1891     TIP3     H1       HT       0.417000       1.00800           0
     14249 TIP3     1891     TIP3     H2       HT       0.417000       1.00800           0
     14250 TIP3     1892     TIP3     OH2      OT      -0.834000       15.9994           0
     14251 TIP3     1892     TIP3     H1       HT       0.417000       1.00800           0
     14252 TIP3     1892     TIP3     H2       HT       0.417000       1.00800           0
     14253 TIP3     1893     TIP3     OH2      OT      -0.834000       15.9994           0
     14254 TIP3     1893     TIP3     H1       HT       0.417000       1.00800           0
     14255 TIP3     1893     TIP3     H2       HT       0.417000       1.00800           0
     14256 TIP3     1894     TIP3     OH2      OT      -0.834000       15.9994           0
     14257 TIP3     1894     TIP3     H1       HT       0.417000       1.00800           0
     14258 TIP3     1894     TIP3     H2       HT       0.417000       1.00800           0
     14259 TIP3     1895     TIP3     OH2      OT      -0.834000       15.9994           0
     14260 TIP3     1895     TIP3     H1       HT       0.417000       1.00800           0
     14261 TIP3     1895     TIP3     H2       HT       0.417000       1.00800           0
     14262 TIP3     1896     TIP3     OH2      OT      -0.834000       15.9994           0
     14263 TIP3     1896     TIP3     H1       HT       0.417000       1.00800           0
     14264 TIP3     1896     TIP3     H2       HT       0.417000       1.00800           0
     14265 TIP3     1897     TIP3     OH2      OT      -0.834000       15.9994           0
     14266 TIP3     1897     TIP3     H1       HT       0.417000       1.00800           0
     14267 TIP3     1897     TIP3     H2       HT       0.417000       1.00800           0
     14268 TIP3     1898     TIP3     OH2      OT      -0.834000       15.9994           0
     14269 TIP3     1898     TIP3     H1       HT       0.417000       1.00800           0
     14270 TIP3     1898     TIP3     H2       HT       0.417000       1.00800           0
     14271 TIP3     1899     TIP3     OH2      OT      -0.834000       15.9994           0
     14272 TIP3     1899     TIP3     H1       HT       0.417000       1.00800           0
     14273 TIP3     1899     TIP3     H2       HT       0.417000       1.00800           0
     14274 TIP3     1900     TIP3     OH2      OT      -0.834000       15.9994           0
     14275 TIP3     1900     TIP3     H1       HT       0.417000       1.00800           0
     14276 TIP3     1900     TIP3     H2       HT       0.417000       1.00800           0
     14277 TIP3     1901     TIP3     OH2      OT      -0.834000       15.9994           0
     14278 TIP3     1901     TIP3     H1       HT       0.417000       1.00800           0
     14279 TIP3     1901     TIP3     H2       HT       0.417000       1.00800           0
     14280 TIP3     1902     TIP3     OH2      OT      -0.834000       15.9994           0
     14281 TIP3     1902     TIP3     H1       HT       0.417000       1.00800           0
     14282 TIP3     1902     TIP3     H2       HT       0.417000       1.00800           0
     14283 TIP3     1903     TIP3     OH2      OT      -0.834000       15.9994           0
     14284 TIP3     1903     TIP3     H1       HT       0.417000       1.00800           0
     14285 TIP3     1903     TIP3     H2       HT       0.417000       1.00800           0
     14286 TIP3     1904     TIP3     OH2      OT      -0.834000       15.9994           0
     14287 TIP3     1904     TIP3     H1       HT       0.417000       1.00800           0
     14288 TIP3     1904     TIP3     H2       HT       0.417000       1.00800           0
     14289 TIP3     1905     TIP3     OH2      OT      -0.834000       15.9994           0
     14290 TIP3     1905     TIP3     H1       HT       0.417000       1.00800           0
     14291 TIP3     1905     TIP3     H2       HT       0.417000       1.00800           0
     14292 TIP3     1906     TIP3     OH2      OT      -0.834000       15.9994           0
     14293 TIP3     1906     TIP3     H1       HT       0.417000       1.00800           0
     14294 TIP3     1906     TIP3     H2       HT       0.417000       1.00800           0
     14295 TIP3     1907     TIP3     OH2      OT      -0.834000       15.9994           0
     14296 TIP3     1907     TIP3     H1       HT       0.417000       1.00800           0
     14297 TIP3     1907     TIP3     H2       HT       0.417000       1.00800           0
     14298 TIP3     1908     TIP3     OH2      OT      -0.834000       15.9994           0
     14299 TIP3     1908     TIP3     H1       HT       0.417000       1.00800           0
     14300 TIP3     1908     TIP3     H2       HT       0.417000       1.00800           0
     14301 TIP3     1909     TIP3     OH2      OT      -0.834000       15.9994           0
     14302 TIP3     1909     TIP3     H1       HT       0.417000       1.00800           0
     14303 TIP3     1909     TIP3     H2       HT       0.417000       1.00800           0
     14304 TIP3     1910     TIP3     OH2      OT      -0.834000       15.9994           0
     14305 TIP3     1910     TIP3     H1       HT       0.417000       1.00800           0
     14306 TIP3     1910     TIP3     H2       HT       0.417000       1.00800           0
     14307 TIP3     1911     TIP3     OH2      OT      -0.834000       15.9994           0
     14308 TIP3     1911     TIP3     H1       HT       0.417000       1.00800           0
     14309 TIP3     1911     TIP3     H2       HT       0.417000       1.00800           0
     14310 TIP3     1912     TIP3     OH2      OT      -0.834000       15.9994           0
     14311 TIP3     1912     TIP3     H1       HT       0.417000       1.00800           0
     14312 TIP3     1912     TIP3     H2       HT       0.417000       1.00800           0
     14313 TIP3     1913     TIP3     OH2      OT      -0.834000       15.9994           0
     14314 TIP3     1913     TIP3     H1       HT       0.417000       1.00800           0
     14315 TIP3     1913     TIP3     H2       HT       0.417000       1.00800           0
     14316 TIP3     1914     TIP3     OH2      OT      -0.834000       15.9994           0
     14317 TIP3     1914     TIP3     H1       HT       0.417000       1.00800           0
     14318 TIP3     1914     TIP3     H2       HT       0.417000       1.00800           0
     14319 TIP3     1915     TIP3     OH2      OT      -0.834000       15.9994           0
     14320 TIP3     1915     TIP3     H1       HT       0.417000       1.00800           0
     14321 TIP3     1915     TIP3     H2       HT       0.417000       1.00800           0
     14322 TIP3     1916     TIP3     OH2      OT      -0.834000       15.9994           0
     14323 TIP3     1916     TIP3     H1       HT       0.417000       1.00800           0
     14324 TIP3     1916     TIP3     H2       HT       0.417000       1.00800           0
     14325 TIP3     1917     TIP3     OH2      OT      -0.834000       15.9994           0
     14326 TIP3     1917     TIP3     H1       HT       0.417000       1.00800           0
     14327 TIP3     1917     TIP3     H2       HT       0.417000       1.00800           0
     14328 TIP3     1918     TIP3     OH2      OT      -0.834000       15.9994           0
     14329 TIP3     1918     TIP3     H1       HT       0.417000       1.00800           0
     14330 TIP3     1918     TIP3     H2       HT       0.417000       1.00800           0
     14331 TIP3     1919     TIP3     OH2      OT      -0.834000       15.9994           0
     14332 TIP3     1919     TIP3     H1       HT       0.417000       1.00800           0
     14333 TIP3     1919     TIP3     H2       HT       0.417000       1.00800           0
     14334 TIP3     1920     TIP3     OH2      OT      -0.834000       15.9994           0
     14335 TIP3     1920     TIP3     H1       HT       0.417000       1.00800           0
     14336 TIP3     1920     TIP3     H2       HT       0.417000       1.00800           0
     14337 TIP3     1921     TIP3     OH2      OT      -0.834000       15.9994           0
     14338 TIP3     1921     TIP3     H1       HT       0.417000       1.00800           0
     14339 TIP3     1921     TIP3     H2       HT       0.417000       1.00800           0
     14340 TIP3     1922     TIP3     OH2      OT      -0.834000       15.9994           0
     14341 TIP3     1922     TIP3     H1       HT       0.417000       1.00800           0
     14342 TIP3     1922     TIP3     H2       HT       0.417000       1.00800           0
     14343 TIP3     1923     TIP3     OH2      OT      -0.834000       15.9994           0
     14344 TIP3     1923     TIP3     H1       HT       0.417000       1.00800           0
     14345 TIP3     1923     TIP3     H2       HT       0.417000       1.00800           0
     14346 TIP3     1924     TIP3     OH2      OT      -0.834000       15.9994           0
     14347 TIP3     1924     TIP3     H1       HT       0.417000       1.00800           0
     14348 TIP3     1924     TIP3     H2       HT       0.417000       1.00800           0
     14349 TIP3     1925     TIP3     OH2      OT      -0.834000       15.9994           0
     14350 TIP3     1925     TIP3     H1       HT       0.417000       1.00800           0
     14351 TIP3     1925     TIP3     H2       HT       0.417000       1.00800           0
     14352 TIP3     1926     TIP3     OH2      OT      -0.834000       15.9994           0
     14353 TIP3     1926     TIP3     H1       HT       0.417000       1.00800           0
     14354 TIP3     1926     TIP3     H2       HT       0.417000       1.00800           0
     14355 TIP3     1927     TIP3     OH2      OT      -0.834000       15.9994           0
     14356 TIP3     1927     TIP3     H1       HT       0.417000       1.00800           0
     14357 TIP3     1927     TIP3     H2       HT       0.417000       1.00800           0
     14358 TIP3     1928     TIP3     OH2      OT      -0.834000       15.9994           0
     14359 TIP3     1928     TIP3     H1       HT       0.417000       1.00800           0
     14360 TIP3     1928     TIP3     H2       HT       0.417000       1.00800           0
     14361 TIP3     1929     TIP3     OH2      OT      -0.834000       15.9994           0
     14362 TIP3     1929     TIP3     H1       HT       0.417000       1.00800           0
     14363 TIP3     1929     TIP3     H2       HT       0.417000       1.00800           0
     14364 TIP3     1930     TIP3     OH2      OT      -0.834000       15.9994           0
     14365 TIP3     1930     TIP3     H1       HT       0.417000       1.00800           0
     14366 TIP3     1930     TIP3     H2       HT       0.417000       1.00800           0
     14367 TIP3     1931     TIP3     OH2      OT      -0.834000       15.9994           0
     14368 TIP3     1931     TIP3     H1       HT       0.417000       1.00800           0
     14369 TIP3     1931     TIP3     H2       HT       0.417000       1.00800           0
     14370 TIP3     1932     TIP3     OH2      OT      -0.834000       15.9994           0
     14371 TIP3     1932     TIP3     H1       HT       0.417000       1.00800           0
     14372 TIP3     1932     TIP3     H2       HT       0.417000       1.00800           0
     14373 TIP3     1933     TIP3     OH2      OT      -0.834000       15.9994           0
     14374 TIP3     1933     TIP3     H1       HT       0.417000       1.00800           0
     14375 TIP3     1933     TIP3     H2       HT       0.417000       1.00800           0
     14376 TIP3     1934     TIP3     OH2      OT      -0.834000       15.9994           0
     14377 TIP3     1934     TIP3     H1       HT       0.417000       1.00800           0
     14378 TIP3     1934     TIP3     H2       HT       0.417000       1.00800           0
     14379 TIP3     1935     TIP3     OH2      OT      -0.834000       15.9994           0
     14380 TIP3     1935     TIP3     H1       HT       0.417000       1.00800           0
     14381 TIP3     1935     TIP3     H2       HT       0.417000       1.00800           0
     14382 TIP3     1936     TIP3     OH2      OT      -0.834000       15.9994           0
     14383 TIP3     1936     TIP3     H1       HT       0.417000       1.00800           0
     14384 TIP3     1936     TIP3     H2       HT       0.417000       1.00800           0
     14385 TIP3     1937     TIP3     OH2      OT      -0.834000       15.9994           0
     14386 TIP3     1937     TIP3     H1       HT       0.417000       1.00800           0
     14387 TIP3     1937     TIP3     H2       HT       0.417000       1.00800           0
     14388 TIP3     1938     TIP3     OH2      OT      -0.834000       15.9994           0
     14389 TIP3     1938     TIP3     H1       HT       0.417000       1.00800           0
     14390 TIP3     1938     TIP3     H2       HT       0.417000       1.00800           0
     14391 TIP3     1939     TIP3     OH2      OT      -0.834000       15.9994           0
     14392 TIP3     1939     TIP3     H1       HT       0.417000       1.00800           0
     14393 TIP3     1939     TIP3     H2       HT       0.417000       1.00800           0
     14394 TIP3     1940     TIP3     OH2      OT      -0.834000       15.9994           0
     14395 TIP3     1940     TIP3     H1       HT       0.417000       1.00800           0
     14396 TIP3     1940     TIP3     H2       HT       0.417000       1.00800           0
     14397 TIP3     1941     TIP3     OH2      OT      -0.834000       15.9994           0
     14398 TIP3     1941     TIP3     H1       HT       0.417000       1.00800           0
     14399 TIP3     1941     TIP3     H2       HT       0.417000       1.00800           0
     14400 TIP3     1942     TIP3     OH2      OT      -0.834000       15.9994           0
     14401 TIP3     1942     TIP3     H1       HT       0.417000       1.00800           0
     14402 TIP3     1942     TIP3     H2       HT       0.417000       1.00800           0
     14403 TIP3     1943     TIP3     OH2      OT      -0.834000       15.9994           0
     14404 TIP3     1943     TIP3     H1       HT       0.417000       1.00800           0
     14405 TIP3     1943     TIP3     H2       HT       0.417000       1.00800           0
     14406 TIP3     1944     TIP3     OH2      OT      -0.834000       15.9994           0
     14407 TIP3     1944     TIP3     H1       HT       0.417000       1.00800           0
     14408 TIP3     1944     TIP3     H2       HT       0.417000       1.00800           0
     14409 TIP3     1945     TIP3     OH2      OT      -0.834000       15.9994           0
     14410 TIP3     1945     TIP3     H1       HT       0.417000       1.00800           0
     14411 TIP3     1945     TIP3     H2       HT       0.417000       1.00800           0
     14412 TIP3     1946     TIP3     OH2      OT      -0.834000       15.9994           0
     14413 TIP3     1946     TIP3     H1       HT       0.417000       1.00800           0
     14414 TIP3     1946     TIP3     H2       HT       0.417000       1.00800           0
     14415 TIP3     1947     TIP3     OH2      OT      -0.834000       15.9994           0
     14416 TIP3     1947     TIP3     H1       HT       0.417000       1.00800           0
     14417 TIP3     1947     TIP3     H2       HT       0.417000       1.00800           0
     14418 TIP3     1948     TIP3     OH2      OT      -0.834000       15.9994           0
     14419 TIP3     1948     TIP3     H1       HT       0.417000       1.00800           0
     14420 TIP3     1948     TIP3     H2       HT       0.417000       1.00800           0
     14421 TIP3     1949     TIP3     OH2      OT      -0.834000       15.9994           0
     14422 TIP3     1949     TIP3     H1       HT       0.417000       1.00800           0
     14423 TIP3     1949     TIP3     H2       HT       0.417000       1.00800           0
     14424 TIP3     1950     TIP3     OH2      OT      -0.834000       15.9994           0
     14425 TIP3     1950     TIP3     H1       HT       0.417000       1.00800           0
     14426 TIP3     1950     TIP3     H2       HT       0.417000       1.00800           0
     14427 TIP3     1951     TIP3     OH2      OT      -0.834000       15.9994           0
     14428 TIP3     1951     TIP3     H1       HT       0.417000       1.00800           0
     14429 TIP3     1951     TIP3     H2       HT       0.417000       1.00800           0
     14430 TIP3     1952     TIP3     OH2      OT      -0.834000       15.9994           0
     14431 TIP3     1952     TIP3     H1       HT       0.417000       1.00800           0
     14432 TIP3     1952     TIP3     H2       HT       0.417000       1.00800           0
     14433 TIP3     1953     TIP3     OH2      OT      -0.834000       15.9994           0
     14434 TIP3     1953     TIP3     H1       HT       0.417000       1.00800           0
     14435 TIP3     1953     TIP3     H2       HT       0.417000       1.00800           0
     14436 TIP3     1954     TIP3     OH2      OT      -0.834000       15.9994           0
     14437 TIP3     1954     TIP3     H1       HT       0.417000       1.00800           0
     14438 TIP3     1954     TIP3     H2       HT       0.417000       1.00800           0
     14439 TIP3     1955     TIP3     OH2      OT      -0.834000       15.9994           0
     14440 TIP3     1955     TIP3     H1       HT       0.417000       1.00800           0
     14441 TIP3     1955     TIP3     H2       HT       0.417000       1.00800           0
     14442 TIP3     1956     TIP3     OH2      OT      -0.834000       15.9994           0
     14443 TIP3     1956     TIP3     H1       HT       0.417000       1.00800           0
     14444 TIP3     1956     TIP3     H2       HT       0.417000       1.00800           0
     14445 TIP3     1957     TIP3     OH2      OT      -0.834000       15.9994           0
     14446 TIP3     1957     TIP3     H1       HT       0.417000       1.00800           0
     14447 TIP3     1957     TIP3     H2       HT       0.417000       1.00800           0
     14448 TIP3     1958     TIP3     OH2      OT      -0.834000       15.9994           0
     14449 TIP3     1958     TIP3     H1       HT       0.417000       1.00800           0
     14450 TIP3     1958     TIP3     H2       HT       0.417000       1.00800           0
     14451 TIP3     1959     TIP3     OH2      OT      -0.834000       15.9994           0
     14452 TIP3     1959     TIP3     H1       HT       0.417000       1.00800           0
     14453 TIP3     1959     TIP3     H2       HT       0.417000       1.00800           0
     14454 TIP3     1960     TIP3     OH2      OT      -0.834000       15.9994           0
     14455 TIP3     1960     TIP3     H1       HT       0.417000       1.00800           0
     14456 TIP3     1960     TIP3     H2       HT       0.417000       1.00800           0
     14457 TIP3     1961     TIP3     OH2      OT      -0.834000       15.9994           0
     14458 TIP3     1961     TIP3     H1       HT       0.417000       1.00800           0
     14459 TIP3     1961     TIP3     H2       HT       0.417000       1.00800           0
     14460 TIP3     1962     TIP3     OH2      OT      -0.834000       15.9994           0
     14461 TIP3     1962     TIP3     H1       HT       0.417000       1.00800           0
     14462 TIP3     1962     TIP3     H2       HT       0.417000       1.00800           0
     14463 TIP3     1963     TIP3     OH2      OT      -0.834000       15.9994           0
     14464 TIP3     1963     TIP3     H1       HT       0.417000       1.00800           0
     14465 TIP3     1963     TIP3     H2       HT       0.417000       1.00800           0
     14466 TIP3     1964     TIP3     OH2      OT      -0.834000       15.9994           0
     14467 TIP3     1964     TIP3     H1       HT       0.417000       1.00800           0
     14468 TIP3     1964     TIP3     H2       HT       0.417000       1.00800           0
     14469 TIP3     1965     TIP3     OH2      OT      -0.834000       15.9994           0
     14470 TIP3     1965     TIP3     H1       HT       0.417000       1.00800           0
     14471 TIP3     1965     TIP3     H2       HT       0.417000       1.00800           0
     14472 TIP3     1966     TIP3     OH2      OT      -0.834000       15.9994           0
     14473 TIP3     1966     TIP3     H1       HT       0.417000       1.00800           0
     14474 TIP3     1966     TIP3     H2       HT       0.417000       1.00800           0
     14475 TIP3     1967     TIP3     OH2      OT      -0.834000       15.9994           0
     14476 TIP3     1967     TIP3     H1       HT       0.417000       1.00800           0
     14477 TIP3     1967     TIP3     H2       HT       0.417000       1.00800           0
     14478 TIP3     1968     TIP3     OH2      OT      -0.834000       15.9994           0
     14479 TIP3     1968     TIP3     H1       HT       0.417000       1.00800           0
     14480 TIP3     1968     TIP3     H2       HT       0.417000       1.00800           0
     14481 TIP3     1969     TIP3     OH2      OT      -0.834000       15.9994           0
     14482 TIP3     1969     TIP3     H1       HT       0.417000       1.00800           0
     14483 TIP3     1969     TIP3     H2       HT       0.417000       1.00800           0
     14484 TIP3     1970     TIP3     OH2      OT      -0.834000       15.9994           0
     14485 TIP3     1970     TIP3     H1       HT       0.417000       1.00800           0
     14486 TIP3     1970     TIP3     H2       HT       0.417000       1.00800           0
     14487 TIP3     1971     TIP3     OH2      OT      -0.834000       15.9994           0
     14488 TIP3     1971     TIP3     H1       HT       0.417000       1.00800           0
     14489 TIP3     1971     TIP3     H2       HT       0.417000       1.00800           0
     14490 TIP3     1972     TIP3     OH2      OT      -0.834000       15.9994           0
     14491 TIP3     1972     TIP3     H1       HT       0.417000       1.00800           0
     14492 TIP3     1972     TIP3     H2       HT       0.417000       1.00800           0
     14493 TIP3     1973     TIP3     OH2      OT      -0.834000       15.9994           0
     14494 TIP3     1973     TIP3     H1       HT       0.417000       1.00800           0
     14495 TIP3     1973     TIP3     H2       HT       0.417000       1.00800           0
     14496 TIP3     1974     TIP3     OH2      OT      -0.834000       15.9994           0
     14497 TIP3     1974     TIP3     H1       HT       0.417000       1.00800           0
     14498 TIP3     1974     TIP3     H2       HT       0.417000       1.00800           0
     14499 TIP3     1975     TIP3     OH2      OT      -0.834000       15.9994           0
     14500 TIP3     1975     TIP3     H1       HT       0.417000       1.00800           0
     14501 TIP3     1975     TIP3     H2       HT       0.417000       1.00800           0
     14502 TIP3     1976     TIP3     OH2      OT      -0.834000       15.9994           0
     14503 TIP3     1976     TIP3     H1       HT       0.417000       1.00800           0
     14504 TIP3     1976     TIP3     H2       HT       0.417000       1.00800           0
     14505 TIP3     1977     TIP3     OH2      OT      -0.834000       15.9994           0
     14506 TIP3     1977     TIP3     H1       HT       0.417000       1.00800           0
     14507 TIP3     1977     TIP3     H2       HT       0.417000       1.00800           0
     14508 TIP3     1978     TIP3     OH2      OT      -0.834000       15.9994           0
     14509 TIP3     1978     TIP3     H1       HT       0.417000       1.00800           0
     14510 TIP3     1978     TIP3     H2       HT       0.417000       1.00800           0
     14511 TIP3     1979     TIP3     OH2      OT      -0.834000       15.9994           0
     14512 TIP3     1979     TIP3     H1       HT       0.417000       1.00800           0
     14513 TIP3     1979     TIP3     H2       HT       0.417000       1.00800           0
     14514 TIP3     1980     TIP3     OH2      OT      -0.834000       15.9994           0
     14515 TIP3     1980     TIP3     H1       HT       0.417000       1.00800           0
     14516 TIP3     1980     TIP3     H2       HT       0.417000       1.00800           0
     14517 TIP3     1981     TIP3     OH2      OT      -0.834000       15.9994           0
     14518 TIP3     1981     TIP3     H1       HT       0.417000       1.00800           0
     14519 TIP3     1981     TIP3     H2       HT       0.417000       1.00800           0
     14520 TIP3     1982     TIP3     OH2      OT      -0.834000       15.9994           0
     14521 TIP3     1982     TIP3     H1       HT       0.417000       1.00800           0
     14522 TIP3     1982     TIP3     H2       HT       0.417000       1.00800           0
     14523 TIP3     1983     TIP3     OH2      OT      -0.834000       15.9994           0
     14524 TIP3     1983     TIP3     H1       HT       0.417000       1.00800           0
     14525 TIP3     1983     TIP3     H2       HT       0.417000       1.00800           0
     14526 TIP3     1984     TIP3     OH2      OT      -0.834000       15.9994           0
     14527 TIP3     1984     TIP3     H1       HT       0.417000       1.00800           0
     14528 TIP3     1984     TIP3     H2       HT       0.417000       1.00800           0
     14529 TIP3     1985     TIP3     OH2      OT      -0.834000       15.9994           0
     14530 TIP3     1985     TIP3     H1       HT       0.417000       1.00800           0
     14531 TIP3     1985     TIP3     H2       HT       0.417000       1.00800           0
     14532 TIP3     1986     TIP3     OH2      OT      -0.834000       15.9994           0
     14533 TIP3     1986     TIP3     H1       HT       0.417000       1.00800           0
     14534 TIP3     1986     TIP3     H2       HT       0.417000       1.00800           0
     14535 TIP3     1987     TIP3     OH2      OT      -0.834000       15.9994           0
     14536 TIP3     1987     TIP3     H1       HT       0.417000       1.00800           0
     14537 TIP3     1987     TIP3     H2       HT       0.417000       1.00800           0
     14538 TIP3     1988     TIP3     OH2      OT      -0.834000       15.9994           0
     14539 TIP3     1988     TIP3     H1       HT       0.417000       1.00800           0
     14540 TIP3     1988     TIP3     H2       HT       0.417000       1.00800           0
     14541 TIP3     1989     TIP3     OH2      OT      -0.834000       15.9994           0
     14542 TIP3     1989     TIP3     H1       HT       0.417000       1.00800           0
     14543 TIP3     1989     TIP3     H2       HT       0.417000       1.00800           0
     14544 TIP3     1990     TIP3     OH2      OT      -0.834000       15.9994           0
     14545 TIP3     1990     TIP3     H1       HT       0.417000       1.00800           0
     14546 TIP3     1990     TIP3     H2       HT       0.417000       1.00800           0
     14547 TIP3     1991     TIP3     OH2      OT      -0.834000       15.9994           0
     14548 TIP3     1991     TIP3     H1       HT       0.417000       1.00800           0
     14549 TIP3     1991     TIP3     H2       HT       0.417000       1.00800           0
     14550 TIP3     1992     TIP3     OH2      OT      -0.834000       15.9994           0
     14551 TIP3     1992     TIP3     H1       HT       0.417000       1.00800           0
     14552 TIP3     1992     TIP3     H2       HT       0.417000       1.00800           0
     14553 TIP3     1993     TIP3     OH2      OT      -0.834000       15.9994           0
     14554 TIP3     1993     TIP3     H1       HT       0.417000       1.00800           0
     14555 TIP3     1993     TIP3     H2       HT       0.417000       1.00800           0
     14556 TIP3     1994     TIP3     OH2      OT      -0.834000       15.9994           0
     14557 TIP3     1994     TIP3     H1       HT       0.417000       1.00800           0
     14558 TIP3     1994     TIP3     H2       HT       0.417000       1.00800           0
     14559 TIP3     1995     TIP3     OH2      OT      -0.834000       15.9994           0
     14560 TIP3     1995     TIP3     H1       HT       0.417000       1.00800           0
     14561 TIP3     1995     TIP3     H2       HT       0.417000       1.00800           0
     14562 TIP3     1996     TIP3     OH2      OT      -0.834000       15.9994           0
     14563 TIP3     1996     TIP3     H1       HT       0.417000       1.00800           0
     14564 TIP3     1996     TIP3     H2       HT       0.417000       1.00800           0
     14565 TIP3     1997     TIP3     OH2      OT      -0.834000       15.9994           0
     14566 TIP3     1997     TIP3     H1       HT       0.417000       1.00800           0
     14567 TIP3     1997     TIP3     H2       HT       0.417000       1.00800           0
     14568 TIP3     1998     TIP3     OH2      OT      -0.834000       15.9994           0
     14569 TIP3     1998     TIP3     H1       HT       0.417000       1.00800           0
     14570 TIP3     1998     TIP3     H2       HT       0.417000       1.00800           0
     14571 TIP3     1999     TIP3     OH2      OT      -0.834000       15.9994           0
     14572 TIP3     1999     TIP3     H1       HT       0.417000       1.00800           0
     14573 TIP3     1999     TIP3     H2       HT       0.417000       1.00800           0
     14574 TIP3     2000     TIP3     OH2      OT      -0.834000       15.9994           0
     14575 TIP3     2000     TIP3     H1       HT       0.417000       1.00800           0
     14576 TIP3     2000     TIP3     H2       HT       0.417000       1.00800           0
     14577 TIP3     2001     TIP3     OH2      OT      -0.834000       15.9994           0
     14578 TIP3     2001     TIP3     H1       HT       0.417000       1.00800           0
     14579 TIP3     2001     TIP3     H2       HT       0.417000       1.00800           0
     14580 TIP3     2002     TIP3     OH2      OT      -0.834000       15.9994           0
     14581 TIP3     2002     TIP3     H1       HT       0.417000       1.00800           0
     14582 TIP3     2002     TIP3     H2       HT       0.417000       1.00800           0
     14583 TIP3     2003     TIP3     OH2      OT      -0.834000       15.9994           0
     14584 TIP3     2003     TIP3     H1       HT       0.417000       1.00800           0
     14585 TIP3     2003     TIP3     H2       HT       0.417000       1.00800           0
     14586 TIP3     2004     TIP3     OH2      OT      -0.834000       15.9994           0
     14587 TIP3     2004     TIP3     H1       HT       0.417000       1.00800           0
     14588 TIP3     2004     TIP3     H2       HT       0.417000       1.00800           0
     14589 TIP3     2005     TIP3     OH2      OT      -0.834000       15.9994           0
     14590 TIP3     2005     TIP3     H1       HT       0.417000       1.00800           0
     14591 TIP3     2005     TIP3     H2       HT       0.417000       1.00800           0
     14592 TIP3     2006     TIP3     OH2      OT      -0.834000       15.9994           0
     14593 TIP3     2006     TIP3     H1       HT       0.417000       1.00800           0
     14594 TIP3     2006     TIP3     H2       HT       0.417000       1.00800           0
     14595 TIP3     2007     TIP3     OH2      OT      -0.834000       15.9994           0
     14596 TIP3     2007     TIP3     H1       HT       0.417000       1.00800           0
     14597 TIP3     2007     TIP3     H2       HT       0.417000       1.00800           0
     14598 TIP3     2008     TIP3     OH2      OT      -0.834000       15.9994           0
     14599 TIP3     2008     TIP3     H1       HT       0.417000       1.00800           0
     14600 TIP3     2008     TIP3     H2       HT       0.417000       1.00800           0
     14601 TIP3     2009     TIP3     OH2      OT      -0.834000       15.9994           0
     14602 TIP3     2009     TIP3     H1       HT       0.417000       1.00800           0
     14603 TIP3     2009     TIP3     H2       HT       0.417000       1.00800           0
     14604 TIP3     2010     TIP3     OH2      OT      -0.834000       15.9994           0
     14605 TIP3     2010     TIP3     H1       HT       0.417000       1.00800           0
     14606 TIP3     2010     TIP3     H2       HT       0.417000       1.00800           0
     14607 TIP3     2011     TIP3     OH2      OT      -0.834000       15.9994           0
     14608 TIP3     2011     TIP3     H1       HT       0.417000       1.00800           0
     14609 TIP3     2011     TIP3     H2       HT       0.417000       1.00800           0
     14610 TIP3     2012     TIP3     OH2      OT      -0.834000       15.9994           0
     14611 TIP3     2012     TIP3     H1       HT       0.417000       1.00800           0
     14612 TIP3     2012     TIP3     H2       HT       0.417000       1.00800           0
     14613 TIP3     2013     TIP3     OH2      OT      -0.834000       15.9994           0
     14614 TIP3     2013     TIP3     H1       HT       0.417000       1.00800           0
     14615 TIP3     2013     TIP3     H2       HT       0.417000       1.00800           0
     14616 TIP3     2014     TIP3     OH2      OT      -0.834000       15.9994           0
     14617 TIP3     2014     TIP3     H1       HT       0.417000       1.00800           0
     14618 TIP3     2014     TIP3     H2       HT       0.417000       1.00800           0
     14619 TIP3     2015     TIP3     OH2      OT      -0.834000       15.9994           0
     14620 TIP3     2015     TIP3     H1       HT       0.417000       1.00800           0
     14621 TIP3     2015     TIP3     H2       HT       0.417000       1.00800           0
     14622 TIP3     2016     TIP3     OH2      OT      -0.834000       15.9994           0
     14623 TIP3     2016     TIP3     H1       HT       0.417000       1.00800           0
     14624 TIP3     2016     TIP3     H2       HT       0.417000       1.00800           0
     14625 TIP3     2017     TIP3     OH2      OT      -0.834000       15.9994           0
     14626 TIP3     2017     TIP3     H1       HT       0.417000       1.00800           0
     14627 TIP3     2017     TIP3     H2       HT       0.417000       1.00800           0
     14628 TIP3     2018     TIP3     OH2      OT      -0.834000       15.9994           0
     14629 TIP3     2018     TIP3     H1       HT       0.417000       1.00800           0
     14630 TIP3     2018     TIP3     H2       HT       0.417000       1.00800           0
     14631 TIP3     2019     TIP3     OH2      OT      -0.834000       15.9994           0
     14632 TIP3     2019     TIP3     H1       HT       0.417000       1.00800           0
     14633 TIP3     2019     TIP3     H2       HT       0.417000       1.00800           0
     14634 TIP3     2020     TIP3     OH2      OT      -0.834000       15.9994           0
     14635 TIP3     2020     TIP3     H1       HT       0.417000       1.00800           0
     14636 TIP3     2020     TIP3     H2       HT       0.417000       1.00800           0
     14637 TIP3     2021     TIP3     OH2      OT      -0.834000       15.9994           0
     14638 TIP3     2021     TIP3     H1       HT       0.417000       1.00800           0
     14639 TIP3     2021     TIP3     H2       HT       0.417000       1.00800           0
     14640 TIP3     2022     TIP3     OH2      OT      -0.834000       15.9994           0
     14641 TIP3     2022     TIP3     H1       HT       0.417000       1.00800           0
     14642 TIP3     2022     TIP3     H2       HT       0.417000       1.00800           0
     14643 TIP3     2023     TIP3     OH2      OT      -0.834000       15.9994           0
     14644 TIP3     2023     TIP3     H1       HT       0.417000       1.00800           0
     14645 TIP3     2023     TIP3     H2       HT       0.417000       1.00800           0
     14646 TIP3     2024     TIP3     OH2      OT      -0.834000       15.9994           0
     14647 TIP3     2024     TIP3     H1       HT       0.417000       1.00800           0
     14648 TIP3     2024     TIP3     H2       HT       0.417000       1.00800           0
     14649 TIP3     2025     TIP3     OH2      OT      -0.834000       15.9994           0
     14650 TIP3     2025     TIP3     H1       HT       0.417000       1.00800           0
     14651 TIP3     2025     TIP3     H2       HT       0.417000       1.00800           0
     14652 TIP3     2026     TIP3     OH2      OT      -0.834000       15.9994           0
     14653 TIP3     2026     TIP3     H1       HT       0.417000       1.00800           0
     14654 TIP3     2026     TIP3     H2       HT       0.417000       1.00800           0
     14655 TIP3     2027     TIP3     OH2      OT      -0.834000       15.9994           0
     14656 TIP3     2027     TIP3     H1       HT       0.417000       1.00800           0
     14657 TIP3     2027     TIP3     H2       HT       0.417000       1.00800           0
     14658 TIP3     2028     TIP3     OH2      OT      -0.834000       15.9994           0
     14659 TIP3     2028     TIP3     H1       HT       0.417000       1.00800           0
     14660 TIP3     2028     TIP3     H2       HT       0.417000       1.00800           0
     14661 TIP3     2029     TIP3     OH2      OT      -0.834000       15.9994           0
     14662 TIP3     2029     TIP3     H1       HT       0.417000       1.00800           0
     14663 TIP3     2029     TIP3     H2       HT       0.417000       1.00800           0
     14664 TIP3     2030     TIP3     OH2      OT      -0.834000       15.9994           0
     14665 TIP3     2030     TIP3     H1       HT       0.417000       1.00800           0
     14666 TIP3     2030     TIP3     H2       HT       0.417000       1.00800           0
     14667 TIP3     2031     TIP3     OH2      OT      -0.834000       15.9994           0
     14668 TIP3     2031     TIP3     H1       HT       0.417000       1.00800           0
     14669 TIP3     2031     TIP3     H2       HT       0.417000       1.00800           0
     14670 TIP3     2032     TIP3     OH2      OT      -0.834000       15.9994           0
     14671 TIP3     2032     TIP3     H1       HT       0.417000       1.00800           0
     14672 TIP3     2032     TIP3     H2       HT       0.417000       1.00800           0
     14673 TIP3     2033     TIP3     OH2      OT      -0.834000       15.9994           0
     14674 TIP3     2033     TIP3     H1       HT       0.417000       1.00800           0
     14675 TIP3     2033     TIP3     H2       HT       0.417000       1.00800           0
     14676 TIP3     2034     TIP3     OH2      OT      -0.834000       15.9994           0
     14677 TIP3     2034     TIP3     H1       HT       0.417000       1.00800           0
     14678 TIP3     2034     TIP3     H2       HT       0.417000       1.00800           0
     14679 TIP3     2035     TIP3     OH2      OT      -0.834000       15.9994           0
     14680 TIP3     2035     TIP3     H1       HT       0.417000       1.00800           0
     14681 TIP3     2035     TIP3     H2       HT       0.417000       1.00800           0
     14682 TIP3     2036     TIP3     OH2      OT      -0.834000       15.9994           0
     14683 TIP3     2036     TIP3     H1       HT       0.417000       1.00800           0
     14684 TIP3     2036     TIP3     H2       HT       0.417000       1.00800           0
     14685 TIP3     2037     TIP3     OH2      OT      -0.834000       15.9994           0
     14686 TIP3     2037     TIP3     H1       HT       0.417000       1.00800           0
     14687 TIP3     2037     TIP3     H2       HT       0.417000       1.00800           0
     14688 TIP3     2038     TIP3     OH2      OT      -0.834000       15.9994           0
     14689 TIP3     2038     TIP3     H1       HT       0.417000       1.00800           0
     14690 TIP3     2038     TIP3     H2       HT       0.417000       1.00800           0
     14691 TIP3     2039     TIP3     OH2      OT      -0.834000       15.9994           0
     14692 TIP3     2039     TIP3     H1       HT       0.417000       1.00800           0
     14693 TIP3     2039     TIP3     H2       HT       0.417000       1.00800           0
     14694 TIP3     2040     TIP3     OH2      OT      -0.834000       15.9994           0
     14695 TIP3     2040     TIP3     H1       HT       0.417000       1.00800           0
     14696 TIP3     2040     TIP3     H2       HT       0.417000       1.00800           0
     14697 TIP3     2041     TIP3     OH2      OT      -0.834000       15.9994           0
     14698 TIP3     2041     TIP3     H1       HT       0.417000       1.00800           0
     14699 TIP3     2041     TIP3     H2       HT       0.417000       1.00800           0
     14700 TIP3     2042     TIP3     OH2      OT      -0.834000       15.9994           0
     14701 TIP3     2042     TIP3     H1       HT       0.417000       1.00800           0
     14702 TIP3     2042     TIP3     H2       HT       0.417000       1.00800           0
     14703 TIP3     2043     TIP3     OH2      OT      -0.834000       15.9994           0
     14704 TIP3     2043     TIP3     H1       HT       0.417000       1.00800           0
     14705 TIP3     2043     TIP3     H2       HT       0.417000       1.00800           0
     14706 TIP3     2044     TIP3     OH2      OT      -0.834000       15.9994           0
     14707 TIP3     2044     TIP3     H1       HT       0.417000       1.00800           0
     14708 TIP3     2044     TIP3     H2       HT       0.417000       1.00800           0
     14709 TIP3     2045     TIP3     OH2      OT      -0.834000       15.9994           0
     14710 TIP3     2045     TIP3     H1       HT       0.417000       1.00800           0
     14711 TIP3     2045     TIP3     H2       HT       0.417000       1.00800           0
     14712 TIP3     2046     TIP3     OH2      OT      -0.834000       15.9994           0
     14713 TIP3     2046     TIP3     H1       HT       0.417000       1.00800           0
     14714 TIP3     2046     TIP3     H2       HT       0.417000       1.00800           0
     14715 TIP3     2047     TIP3     OH2      OT      -0.834000       15.9994           0
     14716 TIP3     2047     TIP3     H1       HT       0.417000       1.00800           0
     14717 TIP3     2047     TIP3     H2       HT       0.417000       1.00800           0
     14718 TIP3     2048     TIP3     OH2      OT      -0.834000       15.9994           0
     14719 TIP3     2048     TIP3     H1       HT       0.417000       1.00800           0
     14720 TIP3     2048     TIP3     H2       HT       0.417000       1.00800           0
     14721 TIP3     2049     TIP3     OH2      OT      -0.834000       15.9994           0
     14722 TIP3     2049     TIP3     H1       HT       0.417000       1.00800           0
     14723 TIP3     2049     TIP3     H2       HT       0.417000       1.00800           0
     14724 TIP3     2050     TIP3     OH2      OT      -0.834000       15.9994           0
     14725 TIP3     2050     TIP3     H1       HT       0.417000       1.00800           0
     14726 TIP3     2050     TIP3     H2       HT       0.417000       1.00800           0
     14727 TIP3     2051     TIP3     OH2      OT      -0.834000       15.9994           0
     14728 TIP3     2051     TIP3     H1       HT       0.417000       1.00800           0
     14729 TIP3     2051     TIP3     H2       HT       0.417000       1.00800           0
     14730 TIP3     2052     TIP3     OH2      OT      -0.834000       15.9994           0
     14731 TIP3     2052     TIP3     H1       HT       0.417000       1.00800           0
     14732 TIP3     2052     TIP3     H2       HT       0.417000       1.00800           0
     14733 TIP3     2053     TIP3     OH2      OT      -0.834000       15.9994           0
     14734 TIP3     2053     TIP3     H1       HT       0.417000       1.00800           0
     14735 TIP3     2053     TIP3     H2       HT       0.417000       1.00800           0
     14736 TIP3     2054     TIP3     OH2      OT      -0.834000       15.9994           0
     14737 TIP3     2054     TIP3     H1       HT       0.417000       1.00800           0
     14738 TIP3     2054     TIP3     H2       HT       0.417000       1.00800           0
     14739 TIP3     2055     TIP3     OH2      OT      -0.834000       15.9994           0
     14740 TIP3     2055     TIP3     H1       HT       0.417000       1.00800           0
     14741 TIP3     2055     TIP3     H2       HT       0.417000       1.00800           0
     14742 TIP3     2056     TIP3     OH2      OT      -0.834000       15.9994           0
     14743 TIP3     2056     TIP3     H1       HT       0.417000       1.00800           0
     14744 TIP3     2056     TIP3     H2       HT       0.417000       1.00800           0
     14745 TIP3     2057     TIP3     OH2      OT      -0.834000       15.9994           0
     14746 TIP3     2057     TIP3     H1       HT       0.417000       1.00800           0
     14747 TIP3     2057     TIP3     H2       HT       0.417000       1.00800           0
     14748 TIP3     2058     TIP3     OH2      OT      -0.834000       15.9994           0
     14749 TIP3     2058     TIP3     H1       HT       0.417000       1.00800           0
     14750 TIP3     2058     TIP3     H2       HT       0.417000       1.00800           0
     14751 TIP3     2059     TIP3     OH2      OT      -0.834000       15.9994           0
     14752 TIP3     2059     TIP3     H1       HT       0.417000       1.00800           0
     14753 TIP3     2059     TIP3     H2       HT       0.417000       1.00800           0
     14754 TIP3     2060     TIP3     OH2      OT      -0.834000       15.9994           0
     14755 TIP3     2060     TIP3     H1       HT       0.417000       1.00800           0
     14756 TIP3     2060     TIP3     H2       HT       0.417000       1.00800           0
     14757 TIP3     2061     TIP3     OH2      OT      -0.834000       15.9994           0
     14758 TIP3     2061     TIP3     H1       HT       0.417000       1.00800           0
     14759 TIP3     2061     TIP3     H2       HT       0.417000       1.00800           0
     14760 TIP3     2062     TIP3     OH2      OT      -0.834000       15.9994           0
     14761 TIP3     2062     TIP3     H1       HT       0.417000       1.00800           0
     14762 TIP3     2062     TIP3     H2       HT       0.417000       1.00800           0
     14763 TIP3     2063     TIP3     OH2      OT      -0.834000       15.9994           0
     14764 TIP3     2063     TIP3     H1       HT       0.417000       1.00800           0
     14765 TIP3     2063     TIP3     H2       HT       0.417000       1.00800           0
     14766 TIP3     2064     TIP3     OH2      OT      -0.834000       15.9994           0
     14767 TIP3     2064     TIP3     H1       HT       0.417000       1.00800           0
     14768 TIP3     2064     TIP3     H2       HT       0.417000       1.00800           0
     14769 TIP3     2065     TIP3     OH2      OT      -0.834000       15.9994           0
     14770 TIP3     2065     TIP3     H1       HT       0.417000       1.00800           0
     14771 TIP3     2065     TIP3     H2       HT       0.417000       1.00800           0
     14772 TIP3     2066     TIP3     OH2      OT      -0.834000       15.9994           0
     14773 TIP3     2066     TIP3     H1       HT       0.417000       1.00800           0
     14774 TIP3     2066     TIP3     H2       HT       0.417000       1.00800           0
     14775 TIP3     2067     TIP3     OH2      OT      -0.834000       15.9994           0
     14776 TIP3     2067     TIP3     H1       HT       0.417000       1.00800           0
     14777 TIP3     2067     TIP3     H2       HT       0.417000       1.00800           0
     14778 TIP3     2068     TIP3     OH2      OT      -0.834000       15.9994           0
     14779 TIP3     2068     TIP3     H1       HT       0.417000       1.00800           0
     14780 TIP3     2068     TIP3     H2       HT       0.417000       1.00800           0
     14781 TIP3     2069     TIP3     OH2      OT      -0.834000       15.9994           0
     14782 TIP3     2069     TIP3     H1       HT       0.417000       1.00800           0
     14783 TIP3     2069     TIP3     H2       HT       0.417000       1.00800           0
     14784 TIP3     2070     TIP3     OH2      OT      -0.834000       15.9994           0
     14785 TIP3     2070     TIP3     H1       HT       0.417000       1.00800           0
     14786 TIP3     2070     TIP3     H2       HT       0.417000       1.00800           0
     14787 TIP3     2071     TIP3     OH2      OT      -0.834000       15.9994           0
     14788 TIP3     2071     TIP3     H1       HT       0.417000       1.00800           0
     14789 TIP3     2071     TIP3     H2       HT       0.417000       1.00800           0
     14790 TIP3     2072     TIP3     OH2      OT      -0.834000       15.9994           0
     14791 TIP3     2072     TIP3     H1       HT       0.417000       1.00800           0
     14792 TIP3     2072     TIP3     H2       HT       0.417000       1.00800           0
     14793 TIP3     2073     TIP3     OH2      OT      -0.834000       15.9994           0
     14794 TIP3     2073     TIP3     H1       HT       0.417000       1.00800           0
     14795 TIP3     2073     TIP3     H2       HT       0.417000       1.00800           0
     14796 TIP3     2074     TIP3     OH2      OT      -0.834000       15.9994           0
     14797 TIP3     2074     TIP3     H1       HT       0.417000       1.00800           0
     14798 TIP3     2074     TIP3     H2       HT       0.417000       1.00800           0
     14799 TIP3     2075     TIP3     OH2      OT      -0.834000       15.9994           0
     14800 TIP3     2075     TIP3     H1       HT       0.417000       1.00800           0
     14801 TIP3     2075     TIP3     H2       HT       0.417000       1.00800           0
     14802 TIP3     2076     TIP3     OH2      OT      -0.834000       15.9994           0
     14803 TIP3     2076     TIP3     H1       HT       0.417000       1.00800           0
     14804 TIP3     2076     TIP3     H2       HT       0.417000       1.00800           0
     14805 TIP3     2077     TIP3     OH2      OT      -0.834000       15.9994           0
     14806 TIP3     2077     TIP3     H1       HT       0.417000       1.00800           0
     14807 TIP3     2077     TIP3     H2       HT       0.417000       1.00800           0
     14808 TIP3     2078     TIP3     OH2      OT      -0.834000       15.9994           0
     14809 TIP3     2078     TIP3     H1       HT       0.417000       1.00800           0
     14810 TIP3     2078     TIP3     H2       HT       0.417000       1.00800           0
     14811 TIP3     2079     TIP3     OH2      OT      -0.834000       15.9994           0
     14812 TIP3     2079     TIP3     H1       HT       0.417000       1.00800           0
     14813 TIP3     2079     TIP3     H2       HT       0.417000       1.00800           0
     14814 TIP3     2080     TIP3     OH2      OT      -0.834000       15.9994           0
     14815 TIP3     2080     TIP3     H1       HT       0.417000       1.00800           0
     14816 TIP3     2080     TIP3     H2       HT       0.417000       1.00800           0
     14817 TIP3     2081     TIP3     OH2      OT      -0.834000       15.9994           0
     14818 TIP3     2081     TIP3     H1       HT       0.417000       1.00800           0
     14819 TIP3     2081     TIP3     H2       HT       0.417000       1.00800           0
     14820 TIP3     2082     TIP3     OH2      OT      -0.834000       15.9994           0
     14821 TIP3     2082     TIP3     H1       HT       0.417000       1.00800           0
     14822 TIP3     2082     TIP3     H2       HT       0.417000       1.00800           0
     14823 TIP3     2083     TIP3     OH2      OT      -0.834000       15.9994           0
     14824 TIP3     2083     TIP3     H1       HT       0.417000       1.00800           0
     14825 TIP3     2083     TIP3     H2       HT       0.417000       1.00800           0
     14826 TIP3     2084     TIP3     OH2      OT      -0.834000       15.9994           0
     14827 TIP3     2084     TIP3     H1       HT       0.417000       1.00800           0
     14828 TIP3     2084     TIP3     H2       HT       0.417000       1.00800           0
     14829 TIP3     2085     TIP3     OH2      OT      -0.834000       15.9994           0
     14830 TIP3     2085     TIP3     H1       HT       0.417000       1.00800           0
     14831 TIP3     2085     TIP3     H2       HT       0.417000       1.00800           0
     14832 TIP3     2086     TIP3     OH2      OT      -0.834000       15.9994           0
     14833 TIP3     2086     TIP3     H1       HT       0.417000       1.00800           0
     14834 TIP3     2086     TIP3     H2       HT       0.417000       1.00800           0
     14835 TIP3     2087     TIP3     OH2      OT      -0.834000       15.9994           0
     14836 TIP3     2087     TIP3     H1       HT       0.417000       1.00800           0
     14837 TIP3     2087     TIP3     H2       HT       0.417000       1.00800           0
     14838 TIP3     2088     TIP3     OH2      OT      -0.834000       15.9994           0
     14839 TIP3     2088     TIP3     H1       HT       0.417000       1.00800           0
     14840 TIP3     2088     TIP3     H2       HT       0.417000       1.00800           0
     14841 TIP3     2089     TIP3     OH2      OT      -0.834000       15.9994           0
     14842 TIP3     2089     TIP3     H1       HT       0.417000       1.00800           0
     14843 TIP3     2089     TIP3     H2       HT       0.417000       1.00800           0
     14844 TIP3     2090     TIP3     OH2      OT      -0.834000       15.9994           0
     14845 TIP3     2090     TIP3     H1       HT       0.417000       1.00800           0
     14846 TIP3     2090     TIP3     H2       HT       0.417000       1.00800           0
     14847 TIP3     2091     TIP3     OH2      OT      -0.834000       15.9994           0
     14848 TIP3     2091     TIP3     H1       HT       0.417000       1.00800           0
     14849 TIP3     2091     TIP3     H2       HT       0.417000       1.00800           0
     14850 TIP3     2092     TIP3     OH2      OT      -0.834000       15.9994           0
     14851 TIP3     2092     TIP3     H1       HT       0.417000       1.00800           0
     14852 TIP3     2092     TIP3     H2       HT       0.417000       1.00800           0
     14853 TIP3     2093     TIP3     OH2      OT      -0.834000       15.9994           0
     14854 TIP3     2093     TIP3     H1       HT       0.417000       1.00800           0
     14855 TIP3     2093     TIP3     H2       HT       0.417000       1.00800           0
     14856 TIP3     2094     TIP3     OH2      OT      -0.834000       15.9994           0
     14857 TIP3     2094     TIP3     H1       HT       0.417000       1.00800           0
     14858 TIP3     2094     TIP3     H2       HT       0.417000       1.00800           0
     14859 TIP3     2095     TIP3     OH2      OT      -0.834000       15.9994           0
     14860 TIP3     2095     TIP3     H1       HT       0.417000       1.00800           0
     14861 TIP3     2095     TIP3     H2       HT       0.417000       1.00800           0
     14862 TIP3     2096     TIP3     OH2      OT      -0.834000       15.9994           0
     14863 TIP3     2096     TIP3     H1       HT       0.417000       1.00800           0
     14864 TIP3     2096     TIP3     H2       HT       0.417000       1.00800           0
     14865 TIP3     2097     TIP3     OH2      OT      -0.834000       15.9994           0
     14866 TIP3     2097     TIP3     H1       HT       0.417000       1.00800           0
     14867 TIP3     2097     TIP3     H2       HT       0.417000       1.00800           0
     14868 TIP3     2098     TIP3     OH2      OT      -0.834000       15.9994           0
     14869 TIP3     2098     TIP3     H1       HT       0.417000       1.00800           0
     14870 TIP3     2098     TIP3     H2       HT       0.417000       1.00800           0
     14871 TIP3     2099     TIP3     OH2      OT      -0.834000       15.9994           0
     14872 TIP3     2099     TIP3     H1       HT       0.417000       1.00800           0
     14873 TIP3     2099     TIP3     H2       HT       0.417000       1.00800           0
     14874 TIP3     2100     TIP3     OH2      OT      -0.834000       15.9994           0
     14875 TIP3     2100     TIP3     H1       HT       0.417000       1.00800           0
     14876 TIP3     2100     TIP3     H2       HT       0.417000       1.00800           0
     14877 TIP3     2101     TIP3     OH2      OT      -0.834000       15.9994           0
     14878 TIP3     2101     TIP3     H1       HT       0.417000       1.00800           0
     14879 TIP3     2101     TIP3     H2       HT       0.417000       1.00800           0
     14880 TIP3     2102     TIP3     OH2      OT      -0.834000       15.9994           0
     14881 TIP3     2102     TIP3     H1       HT       0.417000       1.00800           0
     14882 TIP3     2102     TIP3     H2       HT       0.417000       1.00800           0
     14883 TIP3     2103     TIP3     OH2      OT      -0.834000       15.9994           0
     14884 TIP3     2103     TIP3     H1       HT       0.417000       1.00800           0
     14885 TIP3     2103     TIP3     H2       HT       0.417000       1.00800           0
     14886 TIP3     2104     TIP3     OH2      OT      -0.834000       15.9994           0
     14887 TIP3     2104     TIP3     H1       HT       0.417000       1.00800           0
     14888 TIP3     2104     TIP3     H2       HT       0.417000       1.00800           0
     14889 TIP3     2105     TIP3     OH2      OT      -0.834000       15.9994           0
     14890 TIP3     2105     TIP3     H1       HT       0.417000       1.00800           0
     14891 TIP3     2105     TIP3     H2       HT       0.417000       1.00800           0
     14892 TIP3     2106     TIP3     OH2      OT      -0.834000       15.9994           0
     14893 TIP3     2106     TIP3     H1       HT       0.417000       1.00800           0
     14894 TIP3     2106     TIP3     H2       HT       0.417000       1.00800           0
     14895 TIP3     2107     TIP3     OH2      OT      -0.834000       15.9994           0
     14896 TIP3     2107     TIP3     H1       HT       0.417000       1.00800           0
     14897 TIP3     2107     TIP3     H2       HT       0.417000       1.00800           0
     14898 TIP3     2108     TIP3     OH2      OT      -0.834000       15.9994           0
     14899 TIP3     2108     TIP3     H1       HT       0.417000       1.00800           0
     14900 TIP3     2108     TIP3     H2       HT       0.417000       1.00800           0
     14901 TIP3     2109     TIP3     OH2      OT      -0.834000       15.9994           0
     14902 TIP3     2109     TIP3     H1       HT       0.417000       1.00800           0
     14903 TIP3     2109     TIP3     H2       HT       0.417000       1.00800           0
     14904 TIP3     2110     TIP3     OH2      OT      -0.834000       15.9994           0
     14905 TIP3     2110     TIP3     H1       HT       0.417000       1.00800           0
     14906 TIP3     2110     TIP3     H2       HT       0.417000       1.00800           0
     14907 TIP3     2111     TIP3     OH2      OT      -0.834000       15.9994           0
     14908 TIP3     2111     TIP3     H1       HT       0.417000       1.00800           0
     14909 TIP3     2111     TIP3     H2       HT       0.417000       1.00800           0
     14910 TIP3     2112     TIP3     OH2      OT      -0.834000       15.9994           0
     14911 TIP3     2112     TIP3     H1       HT       0.417000       1.00800           0
     14912 TIP3     2112     TIP3     H2       HT       0.417000       1.00800           0
     14913 TIP3     2113     TIP3     OH2      OT      -0.834000       15.9994           0
     14914 TIP3     2113     TIP3     H1       HT       0.417000       1.00800           0
     14915 TIP3     2113     TIP3     H2       HT       0.417000       1.00800           0
     14916 TIP3     2114     TIP3     OH2      OT      -0.834000       15.9994           0
     14917 TIP3     2114     TIP3     H1       HT       0.417000       1.00800           0
     14918 TIP3     2114     TIP3     H2       HT       0.417000       1.00800           0
     14919 TIP3     2115     TIP3     OH2      OT      -0.834000       15.9994           0
     14920 TIP3     2115     TIP3     H1       HT       0.417000       1.00800           0
     14921 TIP3     2115     TIP3     H2       HT       0.417000       1.00800           0
     14922 TIP3     2116     TIP3     OH2      OT      -0.834000       15.9994           0
     14923 TIP3     2116     TIP3     H1       HT       0.417000       1.00800           0
     14924 TIP3     2116     TIP3     H2       HT       0.417000       1.00800           0
     14925 TIP3     2117     TIP3     OH2      OT      -0.834000       15.9994           0
     14926 TIP3     2117     TIP3     H1       HT       0.417000       1.00800           0
     14927 TIP3     2117     TIP3     H2       HT       0.417000       1.00800           0
     14928 TIP3     2118     TIP3     OH2      OT      -0.834000       15.9994           0
     14929 TIP3     2118     TIP3     H1       HT       0.417000       1.00800           0
     14930 TIP3     2118     TIP3     H2       HT       0.417000       1.00800           0
     14931 TIP3     2119     TIP3     OH2      OT      -0.834000       15.9994           0
     14932 TIP3     2119     TIP3     H1       HT       0.417000       1.00800           0
     14933 TIP3     2119     TIP3     H2       HT       0.417000       1.00800           0
     14934 TIP3     2120     TIP3     OH2      OT      -0.834000       15.9994           0
     14935 TIP3     2120     TIP3     H1       HT       0.417000       1.00800           0
     14936 TIP3     2120     TIP3     H2       HT       0.417000       1.00800           0
     14937 TIP3     2121     TIP3     OH2      OT      -0.834000       15.9994           0
     14938 TIP3     2121     TIP3     H1       HT       0.417000       1.00800           0
     14939 TIP3     2121     TIP3     H2       HT       0.417000       1.00800           0
     14940 TIP3     2122     TIP3     OH2      OT      -0.834000       15.9994           0
     14941 TIP3     2122     TIP3     H1       HT       0.417000       1.00800           0
     14942 TIP3     2122     TIP3     H2       HT       0.417000       1.00800           0
     14943 TIP3     2123     TIP3     OH2      OT      -0.834000       15.9994           0
     14944 TIP3     2123     TIP3     H1       HT       0.417000       1.00800           0
     14945 TIP3     2123     TIP3     H2       HT       0.417000       1.00800           0
     14946 TIP3     2124     TIP3     OH2      OT      -0.834000       15.9994           0
     14947 TIP3     2124     TIP3     H1       HT       0.417000       1.00800           0
     14948 TIP3     2124     TIP3     H2       HT       0.417000       1.00800           0
     14949 TIP3     2125     TIP3     OH2      OT      -0.834000       15.9994           0
     14950 TIP3     2125     TIP3     H1       HT       0.417000       1.00800           0
     14951 TIP3     2125     TIP3     H2       HT       0.417000       1.00800           0
     14952 TIP3     2126     TIP3     OH2      OT      -0.834000       15.9994           0
     14953 TIP3     2126     TIP3     H1       HT       0.417000       1.00800           0
     14954 TIP3     2126     TIP3     H2       HT       0.417000       1.00800           0
     14955 TIP3     2127     TIP3     OH2      OT      -0.834000       15.9994           0
     14956 TIP3     2127     TIP3     H1       HT       0.417000       1.00800           0
     14957 TIP3     2127     TIP3     H2       HT       0.417000       1.00800           0
     14958 TIP3     2128     TIP3     OH2      OT      -0.834000       15.9994           0
     14959 TIP3     2128     TIP3     H1       HT       0.417000       1.00800           0
     14960 TIP3     2128     TIP3     H2       HT       0.417000       1.00800           0
     14961 TIP3     2129     TIP3     OH2      OT      -0.834000       15.9994           0
     14962 TIP3     2129     TIP3     H1       HT       0.417000       1.00800           0
     14963 TIP3     2129     TIP3     H2       HT       0.417000       1.00800           0
     14964 TIP3     2130     TIP3     OH2      OT      -0.834000       15.9994           0
     14965 TIP3     2130     TIP3     H1       HT       0.417000       1.00800           0
     14966 TIP3     2130     TIP3     H2       HT       0.417000       1.00800           0
     14967 TIP3     2131     TIP3     OH2      OT      -0.834000       15.9994           0
     14968 TIP3     2131     TIP3     H1       HT       0.417000       1.00800           0
     14969 TIP3     2131     TIP3     H2       HT       0.417000       1.00800           0
     14970 TIP3     2132     TIP3     OH2      OT      -0.834000       15.9994           0
     14971 TIP3     2132     TIP3     H1       HT       0.417000       1.00800           0
     14972 TIP3     2132     TIP3     H2       HT       0.417000       1.00800           0
     14973 TIP3     2133     TIP3     OH2      OT      -0.834000       15.9994           0
     14974 TIP3     2133     TIP3     H1       HT       0.417000       1.00800           0
     14975 TIP3     2133     TIP3     H2       HT       0.417000       1.00800           0
     14976 TIP3     2134     TIP3     OH2      OT      -0.834000       15.9994           0
     14977 TIP3     2134     TIP3     H1       HT       0.417000       1.00800           0
     14978 TIP3     2134     TIP3     H2       HT       0.417000       1.00800           0
     14979 TIP3     2135     TIP3     OH2      OT      -0.834000       15.9994           0
     14980 TIP3     2135     TIP3     H1       HT       0.417000       1.00800           0
     14981 TIP3     2135     TIP3     H2       HT       0.417000       1.00800           0
     14982 TIP3     2136     TIP3     OH2      OT      -0.834000       15.9994           0
     14983 TIP3     2136     TIP3     H1       HT       0.417000       1.00800           0
     14984 TIP3     2136     TIP3     H2       HT       0.417000       1.00800           0
     14985 TIP3     2137     TIP3     OH2      OT      -0.834000       15.9994           0
     14986 TIP3     2137     TIP3     H1       HT       0.417000       1.00800           0
     14987 TIP3     2137     TIP3     H2       HT       0.417000       1.00800           0
     14988 TIP3     2138     TIP3     OH2      OT      -0.834000       15.9994           0
     14989 TIP3     2138     TIP3     H1       HT       0.417000       1.00800           0
     14990 TIP3     2138     TIP3     H2       HT       0.417000       1.00800           0
     14991 TIP3     2139     TIP3     OH2      OT      -0.834000       15.9994           0
     14992 TIP3     2139     TIP3     H1       HT       0.417000       1.00800           0
     14993 TIP3     2139     TIP3     H2       HT       0.417000       1.00800           0
     14994 TIP3     2140     TIP3     OH2      OT      -0.834000       15.9994           0
     14995 TIP3     2140     TIP3     H1       HT       0.417000       1.00800           0
     14996 TIP3     2140     TIP3     H2       HT       0.417000       1.00800           0
     14997 TIP3     2141     TIP3     OH2      OT      -0.834000       15.9994           0
     14998 TIP3     2141     TIP3     H1       HT       0.417000       1.00800           0
     14999 TIP3     2141     TIP3     H2       HT       0.417000       1.00800           0
     15000 TIP3     2142     TIP3     OH2      OT      -0.834000       15.9994           0
     15001 TIP3     2142     TIP3     H1       HT       0.417000       1.00800           0
     15002 TIP3     2142     TIP3     H2       HT       0.417000       1.00800           0
     15003 TIP3     2143     TIP3     OH2      OT      -0.834000       15.9994           0
     15004 TIP3     2143     TIP3     H1       HT       0.417000       1.00800           0
     15005 TIP3     2143     TIP3     H2       HT       0.417000       1.00800           0
     15006 TIP3     2144     TIP3     OH2      OT      -0.834000       15.9994           0
     15007 TIP3     2144     TIP3     H1       HT       0.417000       1.00800           0
     15008 TIP3     2144     TIP3     H2       HT       0.417000       1.00800           0
     15009 TIP3     2145     TIP3     OH2      OT      -0.834000       15.9994           0
     15010 TIP3     2145     TIP3     H1       HT       0.417000       1.00800           0
     15011 TIP3     2145     TIP3     H2       HT       0.417000       1.00800           0
     15012 TIP3     2146     TIP3     OH2      OT      -0.834000       15.9994           0
     15013 TIP3     2146     TIP3     H1       HT       0.417000       1.00800           0
     15014 TIP3     2146     TIP3     H2       HT       0.417000       1.00800           0
     15015 TIP3     2147     TIP3     OH2      OT      -0.834000       15.9994           0
     15016 TIP3     2147     TIP3     H1       HT       0.417000       1.00800           0
     15017 TIP3     2147     TIP3     H2       HT       0.417000       1.00800           0
     15018 TIP3     2148     TIP3     OH2      OT      -0.834000       15.9994           0
     15019 TIP3     2148     TIP3     H1       HT       0.417000       1.00800           0
     15020 TIP3     2148     TIP3     H2       HT       0.417000       1.00800           0
     15021 TIP3     2149     TIP3     OH2      OT      -0.834000       15.9994           0
     15022 TIP3     2149     TIP3     H1       HT       0.417000       1.00800           0
     15023 TIP3     2149     TIP3     H2       HT       0.417000       1.00800           0
     15024 TIP3     2150     TIP3     OH2      OT      -0.834000       15.9994           0
     15025 TIP3     2150     TIP3     H1       HT       0.417000       1.00800           0
     15026 TIP3     2150     TIP3     H2       HT       0.417000       1.00800           0
     15027 TIP3     2151     TIP3     OH2      OT      -0.834000       15.9994           0
     15028 TIP3     2151     TIP3     H1       HT       0.417000       1.00800           0
     15029 TIP3     2151     TIP3     H2       HT       0.417000       1.00800           0
     15030 TIP3     2152     TIP3     OH2      OT      -0.834000       15.9994           0
     15031 TIP3     2152     TIP3     H1       HT       0.417000       1.00800           0
     15032 TIP3     2152     TIP3     H2       HT       0.417000       1.00800           0
     15033 TIP3     2153     TIP3     OH2      OT      -0.834000       15.9994           0
     15034 TIP3     2153     TIP3     H1       HT       0.417000       1.00800           0
     15035 TIP3     2153     TIP3     H2       HT       0.417000       1.00800           0
     15036 TIP3     2154     TIP3     OH2      OT      -0.834000       15.9994           0
     15037 TIP3     2154     TIP3     H1       HT       0.417000       1.00800           0
     15038 TIP3     2154     TIP3     H2       HT       0.417000       1.00800           0
     15039 TIP3     2155     TIP3     OH2      OT      -0.834000       15.9994           0
     15040 TIP3     2155     TIP3     H1       HT       0.417000       1.00800           0
     15041 TIP3     2155     TIP3     H2       HT       0.417000       1.00800           0
     15042 TIP3     2156     TIP3     OH2      OT      -0.834000       15.9994           0
     15043 TIP3     2156     TIP3     H1       HT       0.417000       1.00800           0
     15044 TIP3     2156     TIP3     H2       HT       0.417000       1.00800           0
     15045 TIP3     2157     TIP3     OH2      OT      -0.834000       15.9994           0
     15046 TIP3     2157     TIP3     H1       HT       0.417000       1.00800           0
     15047 TIP3     2157     TIP3     H2       HT       0.417000       1.00800           0
     15048 TIP3     2158     TIP3     OH2      OT      -0.834000       15.9994           0
     15049 TIP3     2158     TIP3     H1       HT       0.417000       1.00800           0
     15050 TIP3     2158     TIP3     H2       HT       0.417000       1.00800           0
     15051 TIP3     2159     TIP3     OH2      OT      -0.834000       15.9994           0
     15052 TIP3     2159     TIP3     H1       HT       0.417000       1.00800           0
     15053 TIP3     2159     TIP3     H2       HT       0.417000       1.00800           0
     15054 TIP3     2160     TIP3     OH2      OT      -0.834000       15.9994           0
     15055 TIP3     2160     TIP3     H1       HT       0.417000       1.00800           0
     15056 TIP3     2160     TIP3     H2       HT       0.417000       1.00800           0
     15057 TIP3     2161     TIP3     OH2      OT      -0.834000       15.9994           0
     15058 TIP3     2161     TIP3     H1       HT       0.417000       1.00800           0
     15059 TIP3     2161     TIP3     H2       HT       0.417000       1.00800           0
     15060 TIP3     2162     TIP3     OH2      OT      -0.834000       15.9994           0
     15061 TIP3     2162     TIP3     H1       HT       0.417000       1.00800           0
     15062 TIP3     2162     TIP3     H2       HT       0.417000       1.00800           0
     15063 TIP3     2163     TIP3     OH2      OT      -0.834000       15.9994           0
     15064 TIP3     2163     TIP3     H1       HT       0.417000       1.00800           0
     15065 TIP3     2163     TIP3     H2       HT       0.417000       1.00800           0
     15066 TIP3     2164     TIP3     OH2      OT      -0.834000       15.9994           0
     15067 TIP3     2164     TIP3     H1       HT       0.417000       1.00800           0
     15068 TIP3     2164     TIP3     H2       HT       0.417000       1.00800           0
     15069 TIP3     2165     TIP3     OH2      OT      -0.834000       15.9994           0
     15070 TIP3     2165     TIP3     H1       HT       0.417000       1.00800           0
     15071 TIP3     2165     TIP3     H2       HT       0.417000       1.00800           0
     15072 TIP3     2166     TIP3     OH2      OT      -0.834000       15.9994           0
     15073 TIP3     2166     TIP3     H1       HT       0.417000       1.00800           0
     15074 TIP3     2166     TIP3     H2       HT       0.417000       1.00800           0
     15075 TIP3     2167     TIP3     OH2      OT      -0.834000       15.9994           0
     15076 TIP3     2167     TIP3     H1       HT       0.417000       1.00800           0
     15077 TIP3     2167     TIP3     H2       HT       0.417000       1.00800           0
     15078 TIP3     2168     TIP3     OH2      OT      -0.834000       15.9994           0
     15079 TIP3     2168     TIP3     H1       HT       0.417000       1.00800           0
     15080 TIP3     2168     TIP3     H2       HT       0.417000       1.00800           0
     15081 TIP3     2169     TIP3     OH2      OT      -0.834000       15.9994           0
     15082 TIP3     2169     TIP3     H1       HT       0.417000       1.00800           0
     15083 TIP3     2169     TIP3     H2       HT       0.417000       1.00800           0
     15084 TIP3     2170     TIP3     OH2      OT      -0.834000       15.9994           0
     15085 TIP3     2170     TIP3     H1       HT       0.417000       1.00800           0
     15086 TIP3     2170     TIP3     H2       HT       0.417000       1.00800           0
     15087 TIP3     2171     TIP3     OH2      OT      -0.834000       15.9994           0
     15088 TIP3     2171     TIP3     H1       HT       0.417000       1.00800           0
     15089 TIP3     2171     TIP3     H2       HT       0.417000       1.00800           0
     15090 TIP3     2172     TIP3     OH2      OT      -0.834000       15.9994           0
     15091 TIP3     2172     TIP3     H1       HT       0.417000       1.00800           0
     15092 TIP3     2172     TIP3     H2       HT       0.417000       1.00800           0
     15093 TIP3     2173     TIP3     OH2      OT      -0.834000       15.9994           0
     15094 TIP3     2173     TIP3     H1       HT       0.417000       1.00800           0
     15095 TIP3     2173     TIP3     H2       HT       0.417000       1.00800           0
     15096 TIP3     2174     TIP3     OH2      OT      -0.834000       15.9994           0
     15097 TIP3     2174     TIP3     H1       HT       0.417000       1.00800           0
     15098 TIP3     2174     TIP3     H2       HT       0.417000       1.00800           0
     15099 TIP3     2175     TIP3     OH2      OT      -0.834000       15.9994           0
     15100 TIP3     2175     TIP3     H1       HT       0.417000       1.00800           0
     15101 TIP3     2175     TIP3     H2       HT       0.417000       1.00800           0
     15102 TIP3     2176     TIP3     OH2      OT      -0.834000       15.9994           0
     15103 TIP3     2176     TIP3     H1       HT       0.417000       1.00800           0
     15104 TIP3     2176     TIP3     H2       HT       0.417000       1.00800           0
     15105 TIP3     2177     TIP3     OH2      OT      -0.834000       15.9994           0
     15106 TIP3     2177     TIP3     H1       HT       0.417000       1.00800           0
     15107 TIP3     2177     TIP3     H2       HT       0.417000       1.00800           0
     15108 TIP3     2178     TIP3     OH2      OT      -0.834000       15.9994           0
     15109 TIP3     2178     TIP3     H1       HT       0.417000       1.00800           0
     15110 TIP3     2178     TIP3     H2       HT       0.417000       1.00800           0
     15111 TIP3     2179     TIP3     OH2      OT      -0.834000       15.9994           0
     15112 TIP3     2179     TIP3     H1       HT       0.417000       1.00800           0
     15113 TIP3     2179     TIP3     H2       HT       0.417000       1.00800           0
     15114 TIP3     2180     TIP3     OH2      OT      -0.834000       15.9994           0
     15115 TIP3     2180     TIP3     H1       HT       0.417000       1.00800           0
     15116 TIP3     2180     TIP3     H2       HT       0.417000       1.00800           0
     15117 TIP3     2181     TIP3     OH2      OT      -0.834000       15.9994           0
     15118 TIP3     2181     TIP3     H1       HT       0.417000       1.00800           0
     15119 TIP3     2181     TIP3     H2       HT       0.417000       1.00800           0
     15120 TIP3     2182     TIP3     OH2      OT      -0.834000       15.9994           0
     15121 TIP3     2182     TIP3     H1       HT       0.417000       1.00800           0
     15122 TIP3     2182     TIP3     H2       HT       0.417000       1.00800           0
     15123 TIP3     2183     TIP3     OH2      OT      -0.834000       15.9994           0
     15124 TIP3     2183     TIP3     H1       HT       0.417000       1.00800           0
     15125 TIP3     2183     TIP3     H2       HT       0.417000       1.00800           0
     15126 TIP3     2184     TIP3     OH2      OT      -0.834000       15.9994           0
     15127 TIP3     2184     TIP3     H1       HT       0.417000       1.00800           0
     15128 TIP3     2184     TIP3     H2       HT       0.417000       1.00800           0
     15129 TIP3     2185     TIP3     OH2      OT      -0.834000       15.9994           0
     15130 TIP3     2185     TIP3     H1       HT       0.417000       1.00800           0
     15131 TIP3     2185     TIP3     H2       HT       0.417000       1.00800           0
     15132 TIP3     2186     TIP3     OH2      OT      -0.834000       15.9994           0
     15133 TIP3     2186     TIP3     H1       HT       0.417000       1.00800           0
     15134 TIP3     2186     TIP3     H2       HT       0.417000       1.00800           0
     15135 TIP3     2187     TIP3     OH2      OT      -0.834000       15.9994           0
     15136 TIP3     2187     TIP3     H1       HT       0.417000       1.00800           0
     15137 TIP3     2187     TIP3     H2       HT       0.417000       1.00800           0
     15138 TIP3     2188     TIP3     OH2      OT      -0.834000       15.9994           0
     15139 TIP3     2188     TIP3     H1       HT       0.417000       1.00800           0
     15140 TIP3     2188     TIP3     H2       HT       0.417000       1.00800           0
     15141 TIP3     2189     TIP3     OH2      OT      -0.834000       15.9994           0
     15142 TIP3     2189     TIP3     H1       HT       0.417000       1.00800           0
     15143 TIP3     2189     TIP3     H2       HT       0.417000       1.00800           0
     15144 TIP3     2190     TIP3     OH2      OT      -0.834000       15.9994           0
     15145 TIP3     2190     TIP3     H1       HT       0.417000       1.00800           0
     15146 TIP3     2190     TIP3     H2       HT       0.417000       1.00800           0
     15147 TIP3     2191     TIP3     OH2      OT      -0.834000       15.9994           0
     15148 TIP3     2191     TIP3     H1       HT       0.417000       1.00800           0
     15149 TIP3     2191     TIP3     H2       HT       0.417000       1.00800           0
     15150 TIP3     2192     TIP3     OH2      OT      -0.834000       15.9994           0
     15151 TIP3     2192     TIP3     H1       HT       0.417000       1.00800           0
     15152 TIP3     2192     TIP3     H2       HT       0.417000       1.00800           0
     15153 TIP3     2193     TIP3     OH2      OT      -0.834000       15.9994           0
     15154 TIP3     2193     TIP3     H1       HT       0.417000       1.00800           0
     15155 TIP3     2193     TIP3     H2       HT       0.417000       1.00800           0
     15156 TIP3     2194     TIP3     OH2      OT      -0.834000       15.9994           0
     15157 TIP3     2194     TIP3     H1       HT       0.417000       1.00800           0
     15158 TIP3     2194     TIP3     H2       HT       0.417000       1.00800           0
     15159 TIP3     2195     TIP3     OH2      OT      -0.834000       15.9994           0
     15160 TIP3     2195     TIP3     H1       HT       0.417000       1.00800           0
     15161 TIP3     2195     TIP3     H2       HT       0.417000       1.00800           0
     15162 TIP3     2196     TIP3     OH2      OT      -0.834000       15.9994           0
     15163 TIP3     2196     TIP3     H1       HT       0.417000       1.00800           0
     15164 TIP3     2196     TIP3     H2       HT       0.417000       1.00800           0
     15165 TIP3     2197     TIP3     OH2      OT      -0.834000       15.9994           0
     15166 TIP3     2197     TIP3     H1       HT       0.417000       1.00800           0
     15167 TIP3     2197     TIP3     H2       HT       0.417000       1.00800           0
     15168 TIP3     2198     TIP3     OH2      OT      -0.834000       15.9994           0
     15169 TIP3     2198     TIP3     H1       HT       0.417000       1.00800           0
     15170 TIP3     2198     TIP3     H2       HT       0.417000       1.00800           0
     15171 TIP3     2199     TIP3     OH2      OT      -0.834000       15.9994           0
     15172 TIP3     2199     TIP3     H1       HT       0.417000       1.00800           0
     15173 TIP3     2199     TIP3     H2       HT       0.417000       1.00800           0
     15174 TIP3     2200     TIP3     OH2      OT      -0.834000       15.9994           0
     15175 TIP3     2200     TIP3     H1       HT       0.417000       1.00800           0
     15176 TIP3     2200     TIP3     H2       HT       0.417000       1.00800           0
     15177 TIP3     2201     TIP3     OH2      OT      -0.834000       15.9994           0
     15178 TIP3     2201     TIP3     H1       HT       0.417000       1.00800           0
     15179 TIP3     2201     TIP3     H2       HT       0.417000       1.00800           0
     15180 TIP3     2202     TIP3     OH2      OT      -0.834000       15.9994           0
     15181 TIP3     2202     TIP3     H1       HT       0.417000       1.00800           0
     15182 TIP3     2202     TIP3     H2       HT       0.417000       1.00800           0
     15183 TIP3     2203     TIP3     OH2      OT      -0.834000       15.9994           0
     15184 TIP3     2203     TIP3     H1       HT       0.417000       1.00800           0
     15185 TIP3     2203     TIP3     H2       HT       0.417000       1.00800           0
     15186 TIP3     2204     TIP3     OH2      OT      -0.834000       15.9994           0
     15187 TIP3     2204     TIP3     H1       HT       0.417000       1.00800           0
     15188 TIP3     2204     TIP3     H2       HT       0.417000       1.00800           0
     15189 TIP3     2205     TIP3     OH2      OT      -0.834000       15.9994           0
     15190 TIP3     2205     TIP3     H1       HT       0.417000       1.00800           0
     15191 TIP3     2205     TIP3     H2       HT       0.417000       1.00800           0
     15192 TIP3     2206     TIP3     OH2      OT      -0.834000       15.9994           0
     15193 TIP3     2206     TIP3     H1       HT       0.417000       1.00800           0
     15194 TIP3     2206     TIP3     H2       HT       0.417000       1.00800           0
     15195 TIP3     2207     TIP3     OH2      OT      -0.834000       15.9994           0
     15196 TIP3     2207     TIP3     H1       HT       0.417000       1.00800           0
     15197 TIP3     2207     TIP3     H2       HT       0.417000       1.00800           0
     15198 TIP3     2208     TIP3     OH2      OT      -0.834000       15.9994           0
     15199 TIP3     2208     TIP3     H1       HT       0.417000       1.00800           0
     15200 TIP3     2208     TIP3     H2       HT       0.417000       1.00800           0
     15201 TIP3     2209     TIP3     OH2      OT      -0.834000       15.9994           0
     15202 TIP3     2209     TIP3     H1       HT       0.417000       1.00800           0
     15203 TIP3     2209     TIP3     H2       HT       0.417000       1.00800           0
     15204 TIP3     2210     TIP3     OH2      OT      -0.834000       15.9994           0
     15205 TIP3     2210     TIP3     H1       HT       0.417000       1.00800           0
     15206 TIP3     2210     TIP3     H2       HT       0.417000       1.00800           0
     15207 TIP3     2211     TIP3     OH2      OT      -0.834000       15.9994           0
     15208 TIP3     2211     TIP3     H1       HT       0.417000       1.00800           0
     15209 TIP3     2211     TIP3     H2       HT       0.417000       1.00800           0
     15210 TIP3     2212     TIP3     OH2      OT      -0.834000       15.9994           0
     15211 TIP3     2212     TIP3     H1       HT       0.417000       1.00800           0
     15212 TIP3     2212     TIP3     H2       HT       0.417000       1.00800           0
     15213 TIP3     2213     TIP3     OH2      OT      -0.834000       15.9994           0
     15214 TIP3     2213     TIP3     H1       HT       0.417000       1.00800           0
     15215 TIP3     2213     TIP3     H2       HT       0.417000       1.00800           0
     15216 TIP3     2214     TIP3     OH2      OT      -0.834000       15.9994           0
     15217 TIP3     2214     TIP3     H1       HT       0.417000       1.00800           0
     15218 TIP3     2214     TIP3     H2       HT       0.417000       1.00800           0
     15219 TIP3     2215     TIP3     OH2      OT      -0.834000       15.9994           0
     15220 TIP3     2215     TIP3     H1       HT       0.417000       1.00800           0
     15221 TIP3     2215     TIP3     H2       HT       0.417000       1.00800           0
     15222 TIP3     2216     TIP3     OH2      OT      -0.834000       15.9994           0
     15223 TIP3     2216     TIP3     H1       HT       0.417000       1.00800           0
     15224 TIP3     2216     TIP3     H2       HT       0.417000       1.00800           0
     15225 TIP3     2217     TIP3     OH2      OT      -0.834000       15.9994           0
     15226 TIP3     2217     TIP3     H1       HT       0.417000       1.00800           0
     15227 TIP3     2217     TIP3     H2       HT       0.417000       1.00800           0
     15228 TIP3     2218     TIP3     OH2      OT      -0.834000       15.9994           0
     15229 TIP3     2218     TIP3     H1       HT       0.417000       1.00800           0
     15230 TIP3     2218     TIP3     H2       HT       0.417000       1.00800           0
     15231 TIP3     2219     TIP3     OH2      OT      -0.834000       15.9994           0
     15232 TIP3     2219     TIP3     H1       HT       0.417000       1.00800           0
     15233 TIP3     2219     TIP3     H2       HT       0.417000       1.00800           0
     15234 TIP3     2220     TIP3     OH2      OT      -0.834000       15.9994           0
     15235 TIP3     2220     TIP3     H1       HT       0.417000       1.00800           0
     15236 TIP3     2220     TIP3     H2       HT       0.417000       1.00800           0
     15237 TIP3     2221     TIP3     OH2      OT      -0.834000       15.9994           0
     15238 TIP3     2221     TIP3     H1       HT       0.417000       1.00800           0
     15239 TIP3     2221     TIP3     H2       HT       0.417000       1.00800           0
     15240 TIP3     2222     TIP3     OH2      OT      -0.834000       15.9994           0
     15241 TIP3     2222     TIP3     H1       HT       0.417000       1.00800           0
     15242 TIP3     2222     TIP3     H2       HT       0.417000       1.00800           0
     15243 TIP3     2223     TIP3     OH2      OT      -0.834000       15.9994           0
     15244 TIP3     2223     TIP3     H1       HT       0.417000       1.00800           0
     15245 TIP3     2223     TIP3     H2       HT       0.417000       1.00800           0
     15246 TIP3     2224     TIP3     OH2      OT      -0.834000       15.9994           0
     15247 TIP3     2224     TIP3     H1       HT       0.417000       1.00800           0
     15248 TIP3     2224     TIP3     H2       HT       0.417000       1.00800           0
     15249 TIP3     2225     TIP3     OH2      OT      -0.834000       15.9994           0
     15250 TIP3     2225     TIP3     H1       HT       0.417000       1.00800           0
     15251 TIP3     2225     TIP3     H2       HT       0.417000       1.00800           0
     15252 TIP3     2226     TIP3     OH2      OT      -0.834000       15.9994           0
     15253 TIP3     2226     TIP3     H1       HT       0.417000       1.00800           0
     15254 TIP3     2226     TIP3     H2       HT       0.417000       1.00800           0
     15255 TIP3     2227     TIP3     OH2      OT      -0.834000       15.9994           0
     15256 TIP3     2227     TIP3     H1       HT       0.417000       1.00800           0
     15257 TIP3     2227     TIP3     H2       HT       0.417000       1.00800           0
     15258 TIP3     2228     TIP3     OH2      OT      -0.834000       15.9994           0
     15259 TIP3     2228     TIP3     H1       HT       0.417000       1.00800           0
     15260 TIP3     2228     TIP3     H2       HT       0.417000       1.00800           0
     15261 TIP3     2229     TIP3     OH2      OT      -0.834000       15.9994           0
     15262 TIP3     2229     TIP3     H1       HT       0.417000       1.00800           0
     15263 TIP3     2229     TIP3     H2       HT       0.417000       1.00800           0
     15264 TIP3     2230     TIP3     OH2      OT      -0.834000       15.9994           0
     15265 TIP3     2230     TIP3     H1       HT       0.417000       1.00800           0
     15266 TIP3     2230     TIP3     H2       HT       0.417000       1.00800           0
     15267 TIP3     2231     TIP3     OH2      OT      -0.834000       15.9994           0
     15268 TIP3     2231     TIP3     H1       HT       0.417000       1.00800           0
     15269 TIP3     2231     TIP3     H2       HT       0.417000       1.00800           0
     15270 TIP3     2232     TIP3     OH2      OT      -0.834000       15.9994           0
     15271 TIP3     2232     TIP3     H1       HT       0.417000       1.00800           0
     15272 TIP3     2232     TIP3     H2       HT       0.417000       1.00800           0
     15273 TIP3     2233     TIP3     OH2      OT      -0.834000       15.9994           0
     15274 TIP3     2233     TIP3     H1       HT       0.417000       1.00800           0
     15275 TIP3     2233     TIP3     H2       HT       0.417000       1.00800           0
     15276 TIP3     2234     TIP3     OH2      OT      -0.834000       15.9994           0
     15277 TIP3     2234     TIP3     H1       HT       0.417000       1.00800           0
     15278 TIP3     2234     TIP3     H2       HT       0.417000       1.00800           0
     15279 TIP3     2235     TIP3     OH2      OT      -0.834000       15.9994           0
     15280 TIP3     2235     TIP3     H1       HT       0.417000       1.00800           0
     15281 TIP3     2235     TIP3     H2       HT       0.417000       1.00800           0
     15282 TIP3     2236     TIP3     OH2      OT      -0.834000       15.9994           0
     15283 TIP3     2236     TIP3     H1       HT       0.417000       1.00800           0
     15284 TIP3     2236     TIP3     H2       HT       0.417000       1.00800           0
     15285 TIP3     2237     TIP3     OH2      OT      -0.834000       15.9994           0
     15286 TIP3     2237     TIP3     H1       HT       0.417000       1.00800           0
     15287 TIP3     2237     TIP3     H2       HT       0.417000       1.00800           0
     15288 TIP3     2238     TIP3     OH2      OT      -0.834000       15.9994           0
     15289 TIP3     2238     TIP3     H1       HT       0.417000       1.00800           0
     15290 TIP3     2238     TIP3     H2       HT       0.417000       1.00800           0
     15291 TIP3     2239     TIP3     OH2      OT      -0.834000       15.9994           0
     15292 TIP3     2239     TIP3     H1       HT       0.417000       1.00800           0
     15293 TIP3     2239     TIP3     H2       HT       0.417000       1.00800           0
     15294 TIP3     2240     TIP3     OH2      OT      -0.834000       15.9994           0
     15295 TIP3     2240     TIP3     H1       HT       0.417000       1.00800           0
     15296 TIP3     2240     TIP3     H2       HT       0.417000       1.00800           0
     15297 TIP3     2241     TIP3     OH2      OT      -0.834000       15.9994           0
     15298 TIP3     2241     TIP3     H1       HT       0.417000       1.00800           0
     15299 TIP3     2241     TIP3     H2       HT       0.417000       1.00800           0
     15300 TIP3     2242     TIP3     OH2      OT      -0.834000       15.9994           0
     15301 TIP3     2242     TIP3     H1       HT       0.417000       1.00800           0
     15302 TIP3     2242     TIP3     H2       HT       0.417000       1.00800           0
     15303 TIP3     2243     TIP3     OH2      OT      -0.834000       15.9994           0
     15304 TIP3     2243     TIP3     H1       HT       0.417000       1.00800           0
     15305 TIP3     2243     TIP3     H2       HT       0.417000       1.00800           0
     15306 TIP3     2244     TIP3     OH2      OT      -0.834000       15.9994           0
     15307 TIP3     2244     TIP3     H1       HT       0.417000       1.00800           0
     15308 TIP3     2244     TIP3     H2       HT       0.417000       1.00800           0
     15309 TIP3     2245     TIP3     OH2      OT      -0.834000       15.9994           0
     15310 TIP3     2245     TIP3     H1       HT       0.417000       1.00800           0
     15311 TIP3     2245     TIP3     H2       HT       0.417000       1.00800           0
     15312 TIP3     2246     TIP3     OH2      OT      -0.834000       15.9994           0
     15313 TIP3     2246     TIP3     H1       HT       0.417000       1.00800           0
     15314 TIP3     2246     TIP3     H2       HT       0.417000       1.00800           0
     15315 TIP3     2247     TIP3     OH2      OT      -0.834000       15.9994           0
     15316 TIP3     2247     TIP3     H1       HT       0.417000       1.00800           0
     15317 TIP3     2247     TIP3     H2       HT       0.417000       1.00800           0
     15318 TIP3     2248     TIP3     OH2      OT      -0.834000       15.9994           0
     15319 TIP3     2248     TIP3     H1       HT       0.417000       1.00800           0
     15320 TIP3     2248     TIP3     H2       HT       0.417000       1.00800           0
     15321 TIP3     2249     TIP3     OH2      OT      -0.834000       15.9994           0
     15322 TIP3     2249     TIP3     H1       HT       0.417000       1.00800           0
     15323 TIP3     2249     TIP3     H2       HT       0.417000       1.00800           0
     15324 TIP3     2250     TIP3     OH2      OT      -0.834000       15.9994           0
     15325 TIP3     2250     TIP3     H1       HT       0.417000       1.00800           0
     15326 TIP3     2250     TIP3     H2       HT       0.417000       1.00800           0
     15327 TIP3     2251     TIP3     OH2      OT      -0.834000       15.9994           0
     15328 TIP3     2251     TIP3     H1       HT       0.417000       1.00800           0
     15329 TIP3     2251     TIP3     H2       HT       0.417000       1.00800           0
     15330 TIP3     2252     TIP3     OH2      OT      -0.834000       15.9994           0
     15331 TIP3     2252     TIP3     H1       HT       0.417000       1.00800           0
     15332 TIP3     2252     TIP3     H2       HT       0.417000       1.00800           0
     15333 TIP3     2253     TIP3     OH2      OT      -0.834000       15.9994           0
     15334 TIP3     2253     TIP3     H1       HT       0.417000       1.00800           0
     15335 TIP3     2253     TIP3     H2       HT       0.417000       1.00800           0
     15336 TIP3     2254     TIP3     OH2      OT      -0.834000       15.9994           0
     15337 TIP3     2254     TIP3     H1       HT       0.417000       1.00800           0
     15338 TIP3     2254     TIP3     H2       HT       0.417000       1.00800           0
     15339 TIP3     2255     TIP3     OH2      OT      -0.834000       15.9994           0
     15340 TIP3     2255     TIP3     H1       HT       0.417000       1.00800           0
     15341 TIP3     2255     TIP3     H2       HT       0.417000       1.00800           0
     15342 TIP3     2256     TIP3     OH2      OT      -0.834000       15.9994           0
     15343 TIP3     2256     TIP3     H1       HT       0.417000       1.00800           0
     15344 TIP3     2256     TIP3     H2       HT       0.417000       1.00800           0
     15345 TIP3     2257     TIP3     OH2      OT      -0.834000       15.9994           0
     15346 TIP3     2257     TIP3     H1       HT       0.417000       1.00800           0
     15347 TIP3     2257     TIP3     H2       HT       0.417000       1.00800           0
     15348 TIP3     2258     TIP3     OH2      OT      -0.834000       15.9994           0
     15349 TIP3     2258     TIP3     H1       HT       0.417000       1.00800           0
     15350 TIP3     2258     TIP3     H2       HT       0.417000       1.00800           0
     15351 TIP3     2259     TIP3     OH2      OT      -0.834000       15.9994           0
     15352 TIP3     2259     TIP3     H1       HT       0.417000       1.00800           0
     15353 TIP3     2259     TIP3     H2       HT       0.417000       1.00800           0
     15354 TIP3     2260     TIP3     OH2      OT      -0.834000       15.9994           0
     15355 TIP3     2260     TIP3     H1       HT       0.417000       1.00800           0
     15356 TIP3     2260     TIP3     H2       HT       0.417000       1.00800           0
     15357 TIP3     2261     TIP3     OH2      OT      -0.834000       15.9994           0
     15358 TIP3     2261     TIP3     H1       HT       0.417000       1.00800           0
     15359 TIP3     2261     TIP3     H2       HT       0.417000       1.00800           0
     15360 TIP3     2262     TIP3     OH2      OT      -0.834000       15.9994           0
     15361 TIP3     2262     TIP3     H1       HT       0.417000       1.00800           0
     15362 TIP3     2262     TIP3     H2       HT       0.417000       1.00800           0
     15363 TIP3     2263     TIP3     OH2      OT      -0.834000       15.9994           0
     15364 TIP3     2263     TIP3     H1       HT       0.417000       1.00800           0
     15365 TIP3     2263     TIP3     H2       HT       0.417000       1.00800           0
     15366 TIP3     2264     TIP3     OH2      OT      -0.834000       15.9994           0
     15367 TIP3     2264     TIP3     H1       HT       0.417000       1.00800           0
     15368 TIP3     2264     TIP3     H2       HT       0.417000       1.00800           0
     15369 TIP3     2265     TIP3     OH2      OT      -0.834000       15.9994           0
     15370 TIP3     2265     TIP3     H1       HT       0.417000       1.00800           0
     15371 TIP3     2265     TIP3     H2       HT       0.417000       1.00800           0
     15372 TIP3     2266     TIP3     OH2      OT      -0.834000       15.9994           0
     15373 TIP3     2266     TIP3     H1       HT       0.417000       1.00800           0
     15374 TIP3     2266     TIP3     H2       HT       0.417000       1.00800           0
     15375 TIP3     2267     TIP3     OH2      OT      -0.834000       15.9994           0
     15376 TIP3     2267     TIP3     H1       HT       0.417000       1.00800           0
     15377 TIP3     2267     TIP3     H2       HT       0.417000       1.00800           0
     15378 TIP3     2268     TIP3     OH2      OT      -0.834000       15.9994           0
     15379 TIP3     2268     TIP3     H1       HT       0.417000       1.00800           0
     15380 TIP3     2268     TIP3     H2       HT       0.417000       1.00800           0
     15381 TIP3     2269     TIP3     OH2      OT      -0.834000       15.9994           0
     15382 TIP3     2269     TIP3     H1       HT       0.417000       1.00800           0
     15383 TIP3     2269     TIP3     H2       HT       0.417000       1.00800           0
     15384 TIP3     2270     TIP3     OH2      OT      -0.834000       15.9994           0
     15385 TIP3     2270     TIP3     H1       HT       0.417000       1.00800           0
     15386 TIP3     2270     TIP3     H2       HT       0.417000       1.00800           0
     15387 TIP3     2271     TIP3     OH2      OT      -0.834000       15.9994           0
     15388 TIP3     2271     TIP3     H1       HT       0.417000       1.00800           0
     15389 TIP3     2271     TIP3     H2       HT       0.417000       1.00800           0
     15390 TIP3     2272     TIP3     OH2      OT      -0.834000       15.9994           0
     15391 TIP3     2272     TIP3     H1       HT       0.417000       1.00800           0
     15392 TIP3     2272     TIP3     H2       HT       0.417000       1.00800           0
     15393 TIP3     2273     TIP3     OH2      OT      -0.834000       15.9994           0
     15394 TIP3     2273     TIP3     H1       HT       0.417000       1.00800           0
     15395 TIP3     2273     TIP3     H2       HT       0.417000       1.00800           0
     15396 TIP3     2274     TIP3     OH2      OT      -0.834000       15.9994           0
     15397 TIP3     2274     TIP3     H1       HT       0.417000       1.00800           0
     15398 TIP3     2274     TIP3     H2       HT       0.417000       1.00800           0
     15399 TIP3     2275     TIP3     OH2      OT      -0.834000       15.9994           0
     15400 TIP3     2275     TIP3     H1       HT       0.417000       1.00800           0
     15401 TIP3     2275     TIP3     H2       HT       0.417000       1.00800           0
     15402 TIP3     2276     TIP3     OH2      OT      -0.834000       15.9994           0
     15403 TIP3     2276     TIP3     H1       HT       0.417000       1.00800           0
     15404 TIP3     2276     TIP3     H2       HT       0.417000       1.00800           0
     15405 TIP3     2277     TIP3     OH2      OT      -0.834000       15.9994           0
     15406 TIP3     2277     TIP3     H1       HT       0.417000       1.00800           0
     15407 TIP3     2277     TIP3     H2       HT       0.417000       1.00800           0
     15408 TIP3     2278     TIP3     OH2      OT      -0.834000       15.9994           0
     15409 TIP3     2278     TIP3     H1       HT       0.417000       1.00800           0
     15410 TIP3     2278     TIP3     H2       HT       0.417000       1.00800           0
     15411 TIP3     2279     TIP3     OH2      OT      -0.834000       15.9994           0
     15412 TIP3     2279     TIP3     H1       HT       0.417000       1.00800           0
     15413 TIP3     2279     TIP3     H2       HT       0.417000       1.00800           0
     15414 TIP3     2280     TIP3     OH2      OT      -0.834000       15.9994           0
     15415 TIP3     2280     TIP3     H1       HT       0.417000       1.00800           0
     15416 TIP3     2280     TIP3     H2       HT       0.417000       1.00800           0
     15417 TIP3     2281     TIP3     OH2      OT      -0.834000       15.9994           0
     15418 TIP3     2281     TIP3     H1       HT       0.417000       1.00800           0
     15419 TIP3     2281     TIP3     H2       HT       0.417000       1.00800           0
     15420 TIP3     2282     TIP3     OH2      OT      -0.834000       15.9994           0
     15421 TIP3     2282     TIP3     H1       HT       0.417000       1.00800           0
     15422 TIP3     2282     TIP3     H2       HT       0.417000       1.00800           0
     15423 TIP3     2283     TIP3     OH2      OT      -0.834000       15.9994           0
     15424 TIP3     2283     TIP3     H1       HT       0.417000       1.00800           0
     15425 TIP3     2283     TIP3     H2       HT       0.417000       1.00800           0
     15426 TIP3     2284     TIP3     OH2      OT      -0.834000       15.9994           0
     15427 TIP3     2284     TIP3     H1       HT       0.417000       1.00800           0
     15428 TIP3     2284     TIP3     H2       HT       0.417000       1.00800           0
     15429 TIP3     2285     TIP3     OH2      OT      -0.834000       15.9994           0
     15430 TIP3     2285     TIP3     H1       HT       0.417000       1.00800           0
     15431 TIP3     2285     TIP3     H2       HT       0.417000       1.00800           0
     15432 TIP3     2286     TIP3     OH2      OT      -0.834000       15.9994           0
     15433 TIP3     2286     TIP3     H1       HT       0.417000       1.00800           0
     15434 TIP3     2286     TIP3     H2       HT       0.417000       1.00800           0
     15435 TIP3     2287     TIP3     OH2      OT      -0.834000       15.9994           0
     15436 TIP3     2287     TIP3     H1       HT       0.417000       1.00800           0
     15437 TIP3     2287     TIP3     H2       HT       0.417000       1.00800           0
     15438 TIP3     2288     TIP3     OH2      OT      -0.834000       15.9994           0
     15439 TIP3     2288     TIP3     H1       HT       0.417000       1.00800           0
     15440 TIP3     2288     TIP3     H2       HT       0.417000       1.00800           0
     15441 TIP3     2289     TIP3     OH2      OT      -0.834000       15.9994           0
     15442 TIP3     2289     TIP3     H1       HT       0.417000       1.00800           0
     15443 TIP3     2289     TIP3     H2       HT       0.417000       1.00800           0
     15444 TIP3     2290     TIP3     OH2      OT      -0.834000       15.9994           0
     15445 TIP3     2290     TIP3     H1       HT       0.417000       1.00800           0
     15446 TIP3     2290     TIP3     H2       HT       0.417000       1.00800           0
     15447 TIP3     2291     TIP3     OH2      OT      -0.834000       15.9994           0
     15448 TIP3     2291     TIP3     H1       HT       0.417000       1.00800           0
     15449 TIP3     2291     TIP3     H2       HT       0.417000       1.00800           0
     15450 TIP3     2292     TIP3     OH2      OT      -0.834000       15.9994           0
     15451 TIP3     2292     TIP3     H1       HT       0.417000       1.00800           0
     15452 TIP3     2292     TIP3     H2       HT       0.417000       1.00800           0
     15453 TIP3     2293     TIP3     OH2      OT      -0.834000       15.9994           0
     15454 TIP3     2293     TIP3     H1       HT       0.417000       1.00800           0
     15455 TIP3     2293     TIP3     H2       HT       0.417000       1.00800           0
     15456 TIP3     2294     TIP3     OH2      OT      -0.834000       15.9994           0
     15457 TIP3     2294     TIP3     H1       HT       0.417000       1.00800           0
     15458 TIP3     2294     TIP3     H2       HT       0.417000       1.00800           0
     15459 TIP3     2295     TIP3     OH2      OT      -0.834000       15.9994           0
     15460 TIP3     2295     TIP3     H1       HT       0.417000       1.00800           0
     15461 TIP3     2295     TIP3     H2       HT       0.417000       1.00800           0
     15462 TIP3     2296     TIP3     OH2      OT      -0.834000       15.9994           0
     15463 TIP3     2296     TIP3     H1       HT       0.417000       1.00800           0
     15464 TIP3     2296     TIP3     H2       HT       0.417000       1.00800           0
     15465 TIP3     2297     TIP3     OH2      OT      -0.834000       15.9994           0
     15466 TIP3     2297     TIP3     H1       HT       0.417000       1.00800           0
     15467 TIP3     2297     TIP3     H2       HT       0.417000       1.00800           0
     15468 TIP3     2298     TIP3     OH2      OT      -0.834000       15.9994           0
     15469 TIP3     2298     TIP3     H1       HT       0.417000       1.00800           0
     15470 TIP3     2298     TIP3     H2       HT       0.417000       1.00800           0
     15471 TIP3     2299     TIP3     OH2      OT      -0.834000       15.9994           0
     15472 TIP3     2299     TIP3     H1       HT       0.417000       1.00800           0
     15473 TIP3     2299     TIP3     H2       HT       0.417000       1.00800           0
     15474 TIP3     2300     TIP3     OH2      OT      -0.834000       15.9994           0
     15475 TIP3     2300     TIP3     H1       HT       0.417000       1.00800           0
     15476 TIP3     2300     TIP3     H2       HT       0.417000       1.00800           0
     15477 TIP3     2301     TIP3     OH2      OT      -0.834000       15.9994           0
     15478 TIP3     2301     TIP3     H1       HT       0.417000       1.00800           0
     15479 TIP3     2301     TIP3     H2       HT       0.417000       1.00800           0
     15480 TIP3     2302     TIP3     OH2      OT      -0.834000       15.9994           0
     15481 TIP3     2302     TIP3     H1       HT       0.417000       1.00800           0
     15482 TIP3     2302     TIP3     H2       HT       0.417000       1.00800           0
     15483 TIP3     2303     TIP3     OH2      OT      -0.834000       15.9994           0
     15484 TIP3     2303     TIP3     H1       HT       0.417000       1.00800           0
     15485 TIP3     2303     TIP3     H2       HT       0.417000       1.00800           0
     15486 TIP3     2304     TIP3     OH2      OT      -0.834000       15.9994           0
     15487 TIP3     2304     TIP3     H1       HT       0.417000       1.00800           0
     15488 TIP3     2304     TIP3     H2       HT       0.417000       1.00800           0
     15489 TIP3     2305     TIP3     OH2      OT      -0.834000       15.9994           0
     15490 TIP3     2305     TIP3     H1       HT       0.417000       1.00800           0
     15491 TIP3     2305     TIP3     H2       HT       0.417000       1.00800           0
     15492 TIP3     2306     TIP3     OH2      OT      -0.834000       15.9994           0
     15493 TIP3     2306     TIP3     H1       HT       0.417000       1.00800           0
     15494 TIP3     2306     TIP3     H2       HT       0.417000       1.00800           0
     15495 TIP3     2307     TIP3     OH2      OT      -0.834000       15.9994           0
     15496 TIP3     2307     TIP3     H1       HT       0.417000       1.00800           0
     15497 TIP3     2307     TIP3     H2       HT       0.417000       1.00800           0
     15498 TIP3     2308     TIP3     OH2      OT      -0.834000       15.9994           0
     15499 TIP3     2308     TIP3     H1       HT       0.417000       1.00800           0
     15500 TIP3     2308     TIP3     H2       HT       0.417000       1.00800           0
     15501 TIP3     2309     TIP3     OH2      OT      -0.834000       15.9994           0
     15502 TIP3     2309     TIP3     H1       HT       0.417000       1.00800           0
     15503 TIP3     2309     TIP3     H2       HT       0.417000       1.00800           0
     15504 TIP3     2310     TIP3     OH2      OT      -0.834000       15.9994           0
     15505 TIP3     2310     TIP3     H1       HT       0.417000       1.00800           0
     15506 TIP3     2310     TIP3     H2       HT       0.417000       1.00800           0
     15507 TIP3     2311     TIP3     OH2      OT      -0.834000       15.9994           0
     15508 TIP3     2311     TIP3     H1       HT       0.417000       1.00800           0
     15509 TIP3     2311     TIP3     H2       HT       0.417000       1.00800           0
     15510 TIP3     2312     TIP3     OH2      OT      -0.834000       15.9994           0
     15511 TIP3     2312     TIP3     H1       HT       0.417000       1.00800           0
     15512 TIP3     2312     TIP3     H2       HT       0.417000       1.00800           0
     15513 TIP3     2313     TIP3     OH2      OT      -0.834000       15.9994           0
     15514 TIP3     2313     TIP3     H1       HT       0.417000       1.00800           0
     15515 TIP3     2313     TIP3     H2       HT       0.417000       1.00800           0
     15516 TIP3     2314     TIP3     OH2      OT      -0.834000       15.9994           0
     15517 TIP3     2314     TIP3     H1       HT       0.417000       1.00800           0
     15518 TIP3     2314     TIP3     H2       HT       0.417000       1.00800           0
     15519 TIP3     2315     TIP3     OH2      OT      -0.834000       15.9994           0
     15520 TIP3     2315     TIP3     H1       HT       0.417000       1.00800           0
     15521 TIP3     2315     TIP3     H2       HT       0.417000       1.00800           0
     15522 TIP3     2316     TIP3     OH2      OT      -0.834000       15.9994           0
     15523 TIP3     2316     TIP3     H1       HT       0.417000       1.00800           0
     15524 TIP3     2316     TIP3     H2       HT       0.417000       1.00800           0
     15525 TIP3     2317     TIP3     OH2      OT      -0.834000       15.9994           0
     15526 TIP3     2317     TIP3     H1       HT       0.417000       1.00800           0
     15527 TIP3     2317     TIP3     H2       HT       0.417000       1.00800           0
     15528 TIP3     2318     TIP3     OH2      OT      -0.834000       15.9994           0
     15529 TIP3     2318     TIP3     H1       HT       0.417000       1.00800           0
     15530 TIP3     2318     TIP3     H2       HT       0.417000       1.00800           0
     15531 TIP3     2319     TIP3     OH2      OT      -0.834000       15.9994           0
     15532 TIP3     2319     TIP3     H1       HT       0.417000       1.00800           0
     15533 TIP3     2319     TIP3     H2       HT       0.417000       1.00800           0
     15534 TIP3     2320     TIP3     OH2      OT      -0.834000       15.9994           0
     15535 TIP3     2320     TIP3     H1       HT       0.417000       1.00800           0
     15536 TIP3     2320     TIP3     H2       HT       0.417000       1.00800           0
     15537 TIP3     2321     TIP3     OH2      OT      -0.834000       15.9994           0
     15538 TIP3     2321     TIP3     H1       HT       0.417000       1.00800           0
     15539 TIP3     2321     TIP3     H2       HT       0.417000       1.00800           0
     15540 TIP3     2322     TIP3     OH2      OT      -0.834000       15.9994           0
     15541 TIP3     2322     TIP3     H1       HT       0.417000       1.00800           0
     15542 TIP3     2322     TIP3     H2       HT       0.417000       1.00800           0
     15543 TIP3     2323     TIP3     OH2      OT      -0.834000       15.9994           0
     15544 TIP3     2323     TIP3     H1       HT       0.417000       1.00800           0
     15545 TIP3     2323     TIP3     H2       HT       0.417000       1.00800           0
     15546 TIP3     2324     TIP3     OH2      OT      -0.834000       15.9994           0
     15547 TIP3     2324     TIP3     H1       HT       0.417000       1.00800           0
     15548 TIP3     2324     TIP3     H2       HT       0.417000       1.00800           0
     15549 TIP3     2325     TIP3     OH2      OT      -0.834000       15.9994           0
     15550 TIP3     2325     TIP3     H1       HT       0.417000       1.00800           0
     15551 TIP3     2325     TIP3     H2       HT       0.417000       1.00800           0
     15552 TIP3     2326     TIP3     OH2      OT      -0.834000       15.9994           0
     15553 TIP3     2326     TIP3     H1       HT       0.417000       1.00800           0
     15554 TIP3     2326     TIP3     H2       HT       0.417000       1.00800           0
     15555 TIP3     2327     TIP3     OH2      OT      -0.834000       15.9994           0
     15556 TIP3     2327     TIP3     H1       HT       0.417000       1.00800           0
     15557 TIP3     2327     TIP3     H2       HT       0.417000       1.00800           0
     15558 TIP3     2328     TIP3     OH2      OT      -0.834000       15.9994           0
     15559 TIP3     2328     TIP3     H1       HT       0.417000       1.00800           0
     15560 TIP3     2328     TIP3     H2       HT       0.417000       1.00800           0
     15561 TIP3     2329     TIP3     OH2      OT      -0.834000       15.9994           0
     15562 TIP3     2329     TIP3     H1       HT       0.417000       1.00800           0
     15563 TIP3     2329     TIP3     H2       HT       0.417000       1.00800           0
     15564 TIP3     2330     TIP3     OH2      OT      -0.834000       15.9994           0
     15565 TIP3     2330     TIP3     H1       HT       0.417000       1.00800           0
     15566 TIP3     2330     TIP3     H2       HT       0.417000       1.00800           0
     15567 TIP3     2331     TIP3     OH2      OT      -0.834000       15.9994           0
     15568 TIP3     2331     TIP3     H1       HT       0.417000       1.00800           0
     15569 TIP3     2331     TIP3     H2       HT       0.417000       1.00800           0
     15570 TIP3     2332     TIP3     OH2      OT      -0.834000       15.9994           0
     15571 TIP3     2332     TIP3     H1       HT       0.417000       1.00800           0
     15572 TIP3     2332     TIP3     H2       HT       0.417000       1.00800           0
     15573 TIP3     2333     TIP3     OH2      OT      -0.834000       15.9994           0
     15574 TIP3     2333     TIP3     H1       HT       0.417000       1.00800           0
     15575 TIP3     2333     TIP3     H2       HT       0.417000       1.00800           0
     15576 TIP3     2334     TIP3     OH2      OT      -0.834000       15.9994           0
     15577 TIP3     2334     TIP3     H1       HT       0.417000       1.00800           0
     15578 TIP3     2334     TIP3     H2       HT       0.417000       1.00800           0
     15579 TIP3     2335     TIP3     OH2      OT      -0.834000       15.9994           0
     15580 TIP3     2335     TIP3     H1       HT       0.417000       1.00800           0
     15581 TIP3     2335     TIP3     H2       HT       0.417000       1.00800           0
     15582 TIP3     2336     TIP3     OH2      OT      -0.834000       15.9994           0
     15583 TIP3     2336     TIP3     H1       HT       0.417000       1.00800           0
     15584 TIP3     2336     TIP3     H2       HT       0.417000       1.00800           0
     15585 TIP3     2337     TIP3     OH2      OT      -0.834000       15.9994           0
     15586 TIP3     2337     TIP3     H1       HT       0.417000       1.00800           0
     15587 TIP3     2337     TIP3     H2       HT       0.417000       1.00800           0
     15588 TIP3     2338     TIP3     OH2      OT      -0.834000       15.9994           0
     15589 TIP3     2338     TIP3     H1       HT       0.417000       1.00800           0
     15590 TIP3     2338     TIP3     H2       HT       0.417000       1.00800           0
     15591 TIP3     2339     TIP3     OH2      OT      -0.834000       15.9994           0
     15592 TIP3     2339     TIP3     H1       HT       0.417000       1.00800           0
     15593 TIP3     2339     TIP3     H2       HT       0.417000       1.00800           0
     15594 TIP3     2340     TIP3     OH2      OT      -0.834000       15.9994           0
     15595 TIP3     2340     TIP3     H1       HT       0.417000       1.00800           0
     15596 TIP3     2340     TIP3     H2       HT       0.417000       1.00800           0
     15597 TIP3     2341     TIP3     OH2      OT      -0.834000       15.9994           0
     15598 TIP3     2341     TIP3     H1       HT       0.417000       1.00800           0
     15599 TIP3     2341     TIP3     H2       HT       0.417000       1.00800           0
     15600 TIP3     2342     TIP3     OH2      OT      -0.834000       15.9994           0
     15601 TIP3     2342     TIP3     H1       HT       0.417000       1.00800           0
     15602 TIP3     2342     TIP3     H2       HT       0.417000       1.00800           0
     15603 TIP3     2343     TIP3     OH2      OT      -0.834000       15.9994           0
     15604 TIP3     2343     TIP3     H1       HT       0.417000       1.00800           0
     15605 TIP3     2343     TIP3     H2       HT       0.417000       1.00800           0
     15606 TIP3     2344     TIP3     OH2      OT      -0.834000       15.9994           0
     15607 TIP3     2344     TIP3     H1       HT       0.417000       1.00800           0
     15608 TIP3     2344     TIP3     H2       HT       0.417000       1.00800           0
     15609 TIP3     2345     TIP3     OH2      OT      -0.834000       15.9994           0
     15610 TIP3     2345     TIP3     H1       HT       0.417000       1.00800           0
     15611 TIP3     2345     TIP3     H2       HT       0.417000       1.00800           0
     15612 TIP3     2346     TIP3     OH2      OT      -0.834000       15.9994           0
     15613 TIP3     2346     TIP3     H1       HT       0.417000       1.00800           0
     15614 TIP3     2346     TIP3     H2       HT       0.417000       1.00800           0
     15615 TIP3     2347     TIP3     OH2      OT      -0.834000       15.9994           0
     15616 TIP3     2347     TIP3     H1       HT       0.417000       1.00800           0
     15617 TIP3     2347     TIP3     H2       HT       0.417000       1.00800           0
     15618 TIP3     2348     TIP3     OH2      OT      -0.834000       15.9994           0
     15619 TIP3     2348     TIP3     H1       HT       0.417000       1.00800           0
     15620 TIP3     2348     TIP3     H2       HT       0.417000       1.00800           0
     15621 TIP3     2349     TIP3     OH2      OT      -0.834000       15.9994           0
     15622 TIP3     2349     TIP3     H1       HT       0.417000       1.00800           0
     15623 TIP3     2349     TIP3     H2       HT       0.417000       1.00800           0
     15624 TIP3     2350     TIP3     OH2      OT      -0.834000       15.9994           0
     15625 TIP3     2350     TIP3     H1       HT       0.417000       1.00800           0
     15626 TIP3     2350     TIP3     H2       HT       0.417000       1.00800           0
     15627 TIP3     2351     TIP3     OH2      OT      -0.834000       15.9994           0
     15628 TIP3     2351     TIP3     H1       HT       0.417000       1.00800           0
     15629 TIP3     2351     TIP3     H2       HT       0.417000       1.00800           0
     15630 TIP3     2352     TIP3     OH2      OT      -0.834000       15.9994           0
     15631 TIP3     2352     TIP3     H1       HT       0.417000       1.00800           0
     15632 TIP3     2352     TIP3     H2       HT       0.417000       1.00800           0
     15633 TIP3     2353     TIP3     OH2      OT      -0.834000       15.9994           0
     15634 TIP3     2353     TIP3     H1       HT       0.417000       1.00800           0
     15635 TIP3     2353     TIP3     H2       HT       0.417000       1.00800           0
     15636 TIP3     2354     TIP3     OH2      OT      -0.834000       15.9994           0
     15637 TIP3     2354     TIP3     H1       HT       0.417000       1.00800           0
     15638 TIP3     2354     TIP3     H2       HT       0.417000       1.00800           0
     15639 TIP3     2355     TIP3     OH2      OT      -0.834000       15.9994           0
     15640 TIP3     2355     TIP3     H1       HT       0.417000       1.00800           0
     15641 TIP3     2355     TIP3     H2       HT       0.417000       1.00800           0
     15642 TIP3     2356     TIP3     OH2      OT      -0.834000       15.9994           0
     15643 TIP3     2356     TIP3     H1       HT       0.417000       1.00800           0
     15644 TIP3     2356     TIP3     H2       HT       0.417000       1.00800           0
     15645 TIP3     2357     TIP3     OH2      OT      -0.834000       15.9994           0
     15646 TIP3     2357     TIP3     H1       HT       0.417000       1.00800           0
     15647 TIP3     2357     TIP3     H2       HT       0.417000       1.00800           0
     15648 TIP3     2358     TIP3     OH2      OT      -0.834000       15.9994           0
     15649 TIP3     2358     TIP3     H1       HT       0.417000       1.00800           0
     15650 TIP3     2358     TIP3     H2       HT       0.417000       1.00800           0
     15651 TIP3     2359     TIP3     OH2      OT      -0.834000       15.9994           0
     15652 TIP3     2359     TIP3     H1       HT       0.417000       1.00800           0
     15653 TIP3     2359     TIP3     H2       HT       0.417000       1.00800           0
     15654 TIP3     2360     TIP3     OH2      OT      -0.834000       15.9994           0
     15655 TIP3     2360     TIP3     H1       HT       0.417000       1.00800           0
     15656 TIP3     2360     TIP3     H2       HT       0.417000       1.00800           0
     15657 TIP3     2361     TIP3     OH2      OT      -0.834000       15.9994           0
     15658 TIP3     2361     TIP3     H1       HT       0.417000       1.00800           0
     15659 TIP3     2361     TIP3     H2       HT       0.417000       1.00800           0
     15660 TIP3     2362     TIP3     OH2      OT      -0.834000       15.9994           0
     15661 TIP3     2362     TIP3     H1       HT       0.417000       1.00800           0
     15662 TIP3     2362     TIP3     H2       HT       0.417000       1.00800           0
     15663 TIP3     2363     TIP3     OH2      OT      -0.834000       15.9994           0
     15664 TIP3     2363     TIP3     H1       HT       0.417000       1.00800           0
     15665 TIP3     2363     TIP3     H2       HT       0.417000       1.00800           0
     15666 TIP3     2364     TIP3     OH2      OT      -0.834000       15.9994           0
     15667 TIP3     2364     TIP3     H1       HT       0.417000       1.00800           0
     15668 TIP3     2364     TIP3     H2       HT       0.417000       1.00800           0
     15669 TIP3     2365     TIP3     OH2      OT      -0.834000       15.9994           0
     15670 TIP3     2365     TIP3     H1       HT       0.417000       1.00800           0
     15671 TIP3     2365     TIP3     H2       HT       0.417000       1.00800           0
     15672 TIP3     2366     TIP3     OH2      OT      -0.834000       15.9994           0
     15673 TIP3     2366     TIP3     H1       HT       0.417000       1.00800           0
     15674 TIP3     2366     TIP3     H2       HT       0.417000       1.00800           0
     15675 TIP3     2367     TIP3     OH2      OT      -0.834000       15.9994           0
     15676 TIP3     2367     TIP3     H1       HT       0.417000       1.00800           0
     15677 TIP3     2367     TIP3     H2       HT       0.417000       1.00800           0
     15678 TIP3     2368     TIP3     OH2      OT      -0.834000       15.9994           0
     15679 TIP3     2368     TIP3     H1       HT       0.417000       1.00800           0
     15680 TIP3     2368     TIP3     H2       HT       0.417000       1.00800           0
     15681 TIP3     2369     TIP3     OH2      OT      -0.834000       15.9994           0
     15682 TIP3     2369     TIP3     H1       HT       0.417000       1.00800           0
     15683 TIP3     2369     TIP3     H2       HT       0.417000       1.00800           0
     15684 TIP3     2370     TIP3     OH2      OT      -0.834000       15.9994           0
     15685 TIP3     2370     TIP3     H1       HT       0.417000       1.00800           0
     15686 TIP3     2370     TIP3     H2       HT       0.417000       1.00800           0
     15687 TIP3     2371     TIP3     OH2      OT      -0.834000       15.9994           0
     15688 TIP3     2371     TIP3     H1       HT       0.417000       1.00800           0
     15689 TIP3     2371     TIP3     H2       HT       0.417000       1.00800           0
     15690 TIP3     2372     TIP3     OH2      OT      -0.834000       15.9994           0
     15691 TIP3     2372     TIP3     H1       HT       0.417000       1.00800           0
     15692 TIP3     2372     TIP3     H2       HT       0.417000       1.00800           0
     15693 TIP3     2373     TIP3     OH2      OT      -0.834000       15.9994           0
     15694 TIP3     2373     TIP3     H1       HT       0.417000       1.00800           0
     15695 TIP3     2373     TIP3     H2       HT       0.417000       1.00800           0
     15696 TIP3     2374     TIP3     OH2      OT      -0.834000       15.9994           0
     15697 TIP3     2374     TIP3     H1       HT       0.417000       1.00800           0
     15698 TIP3     2374     TIP3     H2       HT       0.417000       1.00800           0
     15699 TIP3     2375     TIP3     OH2      OT      -0.834000       15.9994           0
     15700 TIP3     2375     TIP3     H1       HT       0.417000       1.00800           0
     15701 TIP3     2375     TIP3     H2       HT       0.417000       1.00800           0
     15702 TIP3     2376     TIP3     OH2      OT      -0.834000       15.9994           0
     15703 TIP3     2376     TIP3     H1       HT       0.417000       1.00800           0
     15704 TIP3     2376     TIP3     H2       HT       0.417000       1.00800           0
     15705 TIP3     2377     TIP3     OH2      OT      -0.834000       15.9994           0
     15706 TIP3     2377     TIP3     H1       HT       0.417000       1.00800           0
     15707 TIP3     2377     TIP3     H2       HT       0.417000       1.00800           0
     15708 TIP3     2378     TIP3     OH2      OT      -0.834000       15.9994           0
     15709 TIP3     2378     TIP3     H1       HT       0.417000       1.00800           0
     15710 TIP3     2378     TIP3     H2       HT       0.417000       1.00800           0
     15711 TIP3     2379     TIP3     OH2      OT      -0.834000       15.9994           0
     15712 TIP3     2379     TIP3     H1       HT       0.417000       1.00800           0
     15713 TIP3     2379     TIP3     H2       HT       0.417000       1.00800           0
     15714 TIP3     2380     TIP3     OH2      OT      -0.834000       15.9994           0
     15715 TIP3     2380     TIP3     H1       HT       0.417000       1.00800           0
     15716 TIP3     2380     TIP3     H2       HT       0.417000       1.00800           0
     15717 TIP3     2381     TIP3     OH2      OT      -0.834000       15.9994           0
     15718 TIP3     2381     TIP3     H1       HT       0.417000       1.00800           0
     15719 TIP3     2381     TIP3     H2       HT       0.417000       1.00800           0
     15720 TIP3     2382     TIP3     OH2      OT      -0.834000       15.9994           0
     15721 TIP3     2382     TIP3     H1       HT       0.417000       1.00800           0
     15722 TIP3     2382     TIP3     H2       HT       0.417000       1.00800           0
     15723 TIP3     2383     TIP3     OH2      OT      -0.834000       15.9994           0
     15724 TIP3     2383     TIP3     H1       HT       0.417000       1.00800           0
     15725 TIP3     2383     TIP3     H2       HT       0.417000       1.00800           0
     15726 TIP3     2384     TIP3     OH2      OT      -0.834000       15.9994           0
     15727 TIP3     2384     TIP3     H1       HT       0.417000       1.00800           0
     15728 TIP3     2384     TIP3     H2       HT       0.417000       1.00800           0
     15729 TIP3     2385     TIP3     OH2      OT      -0.834000       15.9994           0
     15730 TIP3     2385     TIP3     H1       HT       0.417000       1.00800           0
     15731 TIP3     2385     TIP3     H2       HT       0.417000       1.00800           0
     15732 TIP3     2386     TIP3     OH2      OT      -0.834000       15.9994           0
     15733 TIP3     2386     TIP3     H1       HT       0.417000       1.00800           0
     15734 TIP3     2386     TIP3     H2       HT       0.417000       1.00800           0
     15735 TIP3     2387     TIP3     OH2      OT      -0.834000       15.9994           0
     15736 TIP3     2387     TIP3     H1       HT       0.417000       1.00800           0
     15737 TIP3     2387     TIP3     H2       HT       0.417000       1.00800           0
     15738 TIP3     2388     TIP3     OH2      OT      -0.834000       15.9994           0
     15739 TIP3     2388     TIP3     H1       HT       0.417000       1.00800           0
     15740 TIP3     2388     TIP3     H2       HT       0.417000       1.00800           0
     15741 TIP3     2389     TIP3     OH2      OT      -0.834000       15.9994           0
     15742 TIP3     2389     TIP3     H1       HT       0.417000       1.00800           0
     15743 TIP3     2389     TIP3     H2       HT       0.417000       1.00800           0
     15744 TIP3     2390     TIP3     OH2      OT      -0.834000       15.9994           0
     15745 TIP3     2390     TIP3     H1       HT       0.417000       1.00800           0
     15746 TIP3     2390     TIP3     H2       HT       0.417000       1.00800           0
     15747 TIP3     2391     TIP3     OH2      OT      -0.834000       15.9994           0
     15748 TIP3     2391     TIP3     H1       HT       0.417000       1.00800           0
     15749 TIP3     2391     TIP3     H2       HT       0.417000       1.00800           0
     15750 TIP3     2392     TIP3     OH2      OT      -0.834000       15.9994           0
     15751 TIP3     2392     TIP3     H1       HT       0.417000       1.00800           0
     15752 TIP3     2392     TIP3     H2       HT       0.417000       1.00800           0
     15753 TIP3     2393     TIP3     OH2      OT      -0.834000       15.9994           0
     15754 TIP3     2393     TIP3     H1       HT       0.417000       1.00800           0
     15755 TIP3     2393     TIP3     H2       HT       0.417000       1.00800           0
     15756 TIP3     2394     TIP3     OH2      OT      -0.834000       15.9994           0
     15757 TIP3     2394     TIP3     H1       HT       0.417000       1.00800           0
     15758 TIP3     2394     TIP3     H2       HT       0.417000       1.00800           0
     15759 TIP3     2395     TIP3     OH2      OT      -0.834000       15.9994           0
     15760 TIP3     2395     TIP3     H1       HT       0.417000       1.00800           0
     15761 TIP3     2395     TIP3     H2       HT       0.417000       1.00800           0
     15762 TIP3     2396     TIP3     OH2      OT      -0.834000       15.9994           0
     15763 TIP3     2396     TIP3     H1       HT       0.417000       1.00800           0
     15764 TIP3     2396     TIP3     H2       HT       0.417000       1.00800           0
     15765 TIP3     2397     TIP3     OH2      OT      -0.834000       15.9994           0
     15766 TIP3     2397     TIP3     H1       HT       0.417000       1.00800           0
     15767 TIP3     2397     TIP3     H2       HT       0.417000       1.00800           0
     15768 TIP3     2398     TIP3     OH2      OT      -0.834000       15.9994           0
     15769 TIP3     2398     TIP3     H1       HT       0.417000       1.00800           0
     15770 TIP3     2398     TIP3     H2       HT       0.417000       1.00800           0
     15771 TIP3     2399     TIP3     OH2      OT      -0.834000       15.9994           0
     15772 TIP3     2399     TIP3     H1       HT       0.417000       1.00800           0
     15773 TIP3     2399     TIP3     H2       HT       0.417000       1.00800           0
     15774 TIP3     2400     TIP3     OH2      OT      -0.834000       15.9994           0
     15775 TIP3     2400     TIP3     H1       HT       0.417000       1.00800           0
     15776 TIP3     2400     TIP3     H2       HT       0.417000       1.00800           0
     15777 TIP3     2401     TIP3     OH2      OT      -0.834000       15.9994           0
     15778 TIP3     2401     TIP3     H1       HT       0.417000       1.00800           0
     15779 TIP3     2401     TIP3     H2       HT       0.417000       1.00800           0
     15780 TIP3     2402     TIP3     OH2      OT      -0.834000       15.9994           0
     15781 TIP3     2402     TIP3     H1       HT       0.417000       1.00800           0
     15782 TIP3     2402     TIP3     H2       HT       0.417000       1.00800           0
     15783 TIP3     2403     TIP3     OH2      OT      -0.834000       15.9994           0
     15784 TIP3     2403     TIP3     H1       HT       0.417000       1.00800           0
     15785 TIP3     2403     TIP3     H2       HT       0.417000       1.00800           0
     15786 TIP3     2404     TIP3     OH2      OT      -0.834000       15.9994           0
     15787 TIP3     2404     TIP3     H1       HT       0.417000       1.00800           0
     15788 TIP3     2404     TIP3     H2       HT       0.417000       1.00800           0
     15789 TIP3     2405     TIP3     OH2      OT      -0.834000       15.9994           0
     15790 TIP3     2405     TIP3     H1       HT       0.417000       1.00800           0
     15791 TIP3     2405     TIP3     H2       HT       0.417000       1.00800           0
     15792 TIP3     2406     TIP3     OH2      OT      -0.834000       15.9994           0
     15793 TIP3     2406     TIP3     H1       HT       0.417000       1.00800           0
     15794 TIP3     2406     TIP3     H2       HT       0.417000       1.00800           0
     15795 TIP3     2407     TIP3     OH2      OT      -0.834000       15.9994           0
     15796 TIP3     2407     TIP3     H1       HT       0.417000       1.00800           0
     15797 TIP3     2407     TIP3     H2       HT       0.417000       1.00800           0
     15798 TIP3     2408     TIP3     OH2      OT      -0.834000       15.9994           0
     15799 TIP3     2408     TIP3     H1       HT       0.417000       1.00800           0
     15800 TIP3     2408     TIP3     H2       HT       0.417000       1.00800           0
     15801 TIP3     2409     TIP3     OH2      OT      -0.834000       15.9994           0
     15802 TIP3     2409     TIP3     H1       HT       0.417000       1.00800           0
     15803 TIP3     2409     TIP3     H2       HT       0.417000       1.00800           0
     15804 TIP3     2410     TIP3     OH2      OT      -0.834000       15.9994           0
     15805 TIP3     2410     TIP3     H1       HT       0.417000       1.00800           0
     15806 TIP3     2410     TIP3     H2       HT       0.417000       1.00800           0
     15807 TIP3     2411     TIP3     OH2      OT      -0.834000       15.9994           0
     15808 TIP3     2411     TIP3     H1       HT       0.417000       1.00800           0
     15809 TIP3     2411     TIP3     H2       HT       0.417000       1.00800           0
     15810 TIP3     2412     TIP3     OH2      OT      -0.834000       15.9994           0
     15811 TIP3     2412     TIP3     H1       HT       0.417000       1.00800           0
     15812 TIP3     2412     TIP3     H2       HT       0.417000       1.00800           0
     15813 TIP3     2413     TIP3     OH2      OT      -0.834000       15.9994           0
     15814 TIP3     2413     TIP3     H1       HT       0.417000       1.00800           0
     15815 TIP3     2413     TIP3     H2       HT       0.417000       1.00800           0
     15816 TIP3     2414     TIP3     OH2      OT      -0.834000       15.9994           0
     15817 TIP3     2414     TIP3     H1       HT       0.417000       1.00800           0
     15818 TIP3     2414     TIP3     H2       HT       0.417000       1.00800           0
     15819 TIP3     2415     TIP3     OH2      OT      -0.834000       15.9994           0
     15820 TIP3     2415     TIP3     H1       HT       0.417000       1.00800           0
     15821 TIP3     2415     TIP3     H2       HT       0.417000       1.00800           0
     15822 TIP3     2416     TIP3     OH2      OT      -0.834000       15.9994           0
     15823 TIP3     2416     TIP3     H1       HT       0.417000       1.00800           0
     15824 TIP3     2416     TIP3     H2       HT       0.417000       1.00800           0
     15825 TIP3     2417     TIP3     OH2      OT      -0.834000       15.9994           0
     15826 TIP3     2417     TIP3     H1       HT       0.417000       1.00800           0
     15827 TIP3     2417     TIP3     H2       HT       0.417000       1.00800           0
     15828 TIP3     2418     TIP3     OH2      OT      -0.834000       15.9994           0
     15829 TIP3     2418     TIP3     H1       HT       0.417000       1.00800           0
     15830 TIP3     2418     TIP3     H2       HT       0.417000       1.00800           0
     15831 TIP3     2419     TIP3     OH2      OT      -0.834000       15.9994           0
     15832 TIP3     2419     TIP3     H1       HT       0.417000       1.00800           0
     15833 TIP3     2419     TIP3     H2       HT       0.417000       1.00800           0
     15834 TIP3     2420     TIP3     OH2      OT      -0.834000       15.9994           0
     15835 TIP3     2420     TIP3     H1       HT       0.417000       1.00800           0
     15836 TIP3     2420     TIP3     H2       HT       0.417000       1.00800           0
     15837 TIP3     2421     TIP3     OH2      OT      -0.834000       15.9994           0
     15838 TIP3     2421     TIP3     H1       HT       0.417000       1.00800           0
     15839 TIP3     2421     TIP3     H2       HT       0.417000       1.00800           0
     15840 TIP3     2422     TIP3     OH2      OT      -0.834000       15.9994           0
     15841 TIP3     2422     TIP3     H1       HT       0.417000       1.00800           0
     15842 TIP3     2422     TIP3     H2       HT       0.417000       1.00800           0
     15843 TIP3     2423     TIP3     OH2      OT      -0.834000       15.9994           0
     15844 TIP3     2423     TIP3     H1       HT       0.417000       1.00800           0
     15845 TIP3     2423     TIP3     H2       HT       0.417000       1.00800           0
     15846 TIP3     2424     TIP3     OH2      OT      -0.834000       15.9994           0
     15847 TIP3     2424     TIP3     H1       HT       0.417000       1.00800           0
     15848 TIP3     2424     TIP3     H2       HT       0.417000       1.00800           0
     15849 TIP3     2425     TIP3     OH2      OT      -0.834000       15.9994           0
     15850 TIP3     2425     TIP3     H1       HT       0.417000       1.00800           0
     15851 TIP3     2425     TIP3     H2       HT       0.417000       1.00800           0
     15852 TIP3     2426     TIP3     OH2      OT      -0.834000       15.9994           0
     15853 TIP3     2426     TIP3     H1       HT       0.417000       1.00800           0
     15854 TIP3     2426     TIP3     H2       HT       0.417000       1.00800           0
     15855 TIP3     2427     TIP3     OH2      OT      -0.834000       15.9994           0
     15856 TIP3     2427     TIP3     H1       HT       0.417000       1.00800           0
     15857 TIP3     2427     TIP3     H2       HT       0.417000       1.00800           0
     15858 TIP3     2428     TIP3     OH2      OT      -0.834000       15.9994           0
     15859 TIP3     2428     TIP3     H1       HT       0.417000       1.00800           0
     15860 TIP3     2428     TIP3     H2       HT       0.417000       1.00800           0
     15861 TIP3     2429     TIP3     OH2      OT      -0.834000       15.9994           0
     15862 TIP3     2429     TIP3     H1       HT       0.417000       1.00800           0
     15863 TIP3     2429     TIP3     H2       HT       0.417000       1.00800           0
     15864 TIP3     2430     TIP3     OH2      OT      -0.834000       15.9994           0
     15865 TIP3     2430     TIP3     H1       HT       0.417000       1.00800           0
     15866 TIP3     2430     TIP3     H2       HT       0.417000       1.00800           0
     15867 TIP3     2431     TIP3     OH2      OT      -0.834000       15.9994           0
     15868 TIP3     2431     TIP3     H1       HT       0.417000       1.00800           0
     15869 TIP3     2431     TIP3     H2       HT       0.417000       1.00800           0
     15870 TIP3     2432     TIP3     OH2      OT      -0.834000       15.9994           0
     15871 TIP3     2432     TIP3     H1       HT       0.417000       1.00800           0
     15872 TIP3     2432     TIP3     H2       HT       0.417000       1.00800           0
     15873 TIP3     2433     TIP3     OH2      OT      -0.834000       15.9994           0
     15874 TIP3     2433     TIP3     H1       HT       0.417000       1.00800           0
     15875 TIP3     2433     TIP3     H2       HT       0.417000       1.00800           0
     15876 TIP3     2434     TIP3     OH2      OT      -0.834000       15.9994           0
     15877 TIP3     2434     TIP3     H1       HT       0.417000       1.00800           0
     15878 TIP3     2434     TIP3     H2       HT       0.417000       1.00800           0
     15879 TIP3     2435     TIP3     OH2      OT      -0.834000       15.9994           0
     15880 TIP3     2435     TIP3     H1       HT       0.417000       1.00800           0
     15881 TIP3     2435     TIP3     H2       HT       0.417000       1.00800           0
     15882 TIP3     2436     TIP3     OH2      OT      -0.834000       15.9994           0
     15883 TIP3     2436     TIP3     H1       HT       0.417000       1.00800           0
     15884 TIP3     2436     TIP3     H2       HT       0.417000       1.00800           0
     15885 TIP3     2437     TIP3     OH2      OT      -0.834000       15.9994           0
     15886 TIP3     2437     TIP3     H1       HT       0.417000       1.00800           0
     15887 TIP3     2437     TIP3     H2       HT       0.417000       1.00800           0
     15888 TIP3     2438     TIP3     OH2      OT      -0.834000       15.9994           0
     15889 TIP3     2438     TIP3     H1       HT       0.417000       1.00800           0
     15890 TIP3     2438     TIP3     H2       HT       0.417000       1.00800           0
     15891 TIP3     2439     TIP3     OH2      OT      -0.834000       15.9994           0
     15892 TIP3     2439     TIP3     H1       HT       0.417000       1.00800           0
     15893 TIP3     2439     TIP3     H2       HT       0.417000       1.00800           0
     15894 TIP3     2440     TIP3     OH2      OT      -0.834000       15.9994           0
     15895 TIP3     2440     TIP3     H1       HT       0.417000       1.00800           0
     15896 TIP3     2440     TIP3     H2       HT       0.417000       1.00800           0
     15897 TIP3     2441     TIP3     OH2      OT      -0.834000       15.9994           0
     15898 TIP3     2441     TIP3     H1       HT       0.417000       1.00800           0
     15899 TIP3     2441     TIP3     H2       HT       0.417000       1.00800           0
     15900 TIP3     2442     TIP3     OH2      OT      -0.834000       15.9994           0
     15901 TIP3     2442     TIP3     H1       HT       0.417000       1.00800           0
     15902 TIP3     2442     TIP3     H2       HT       0.417000       1.00800           0
     15903 TIP3     2443     TIP3     OH2      OT      -0.834000       15.9994           0
     15904 TIP3     2443     TIP3     H1       HT       0.417000       1.00800           0
     15905 TIP3     2443     TIP3     H2       HT       0.417000       1.00800           0
     15906 TIP3     2444     TIP3     OH2      OT      -0.834000       15.9994           0
     15907 TIP3     2444     TIP3     H1       HT       0.417000       1.00800           0
     15908 TIP3     2444     TIP3     H2       HT       0.417000       1.00800           0
     15909 TIP3     2445     TIP3     OH2      OT      -0.834000       15.9994           0
     15910 TIP3     2445     TIP3     H1       HT       0.417000       1.00800           0
     15911 TIP3     2445     TIP3     H2       HT       0.417000       1.00800           0
     15912 TIP3     2446     TIP3     OH2      OT      -0.834000       15.9994           0
     15913 TIP3     2446     TIP3     H1       HT       0.417000       1.00800           0
     15914 TIP3     2446     TIP3     H2       HT       0.417000       1.00800           0
     15915 TIP3     2447     TIP3     OH2      OT      -0.834000       15.9994           0
     15916 TIP3     2447     TIP3     H1       HT       0.417000       1.00800           0
     15917 TIP3     2447     TIP3     H2       HT       0.417000       1.00800           0
     15918 TIP3     2448     TIP3     OH2      OT      -0.834000       15.9994           0
     15919 TIP3     2448     TIP3     H1       HT       0.417000       1.00800           0
     15920 TIP3     2448     TIP3     H2       HT       0.417000       1.00800           0
     15921 TIP3     2449     TIP3     OH2      OT      -0.834000       15.9994           0
     15922 TIP3     2449     TIP3     H1       HT       0.417000       1.00800           0
     15923 TIP3     2449     TIP3     H2       HT       0.417000       1.00800           0
     15924 TIP3     2450     TIP3     OH2      OT      -0.834000       15.9994           0
     15925 TIP3     2450     TIP3     H1       HT       0.417000       1.00800           0
     15926 TIP3     2450     TIP3     H2       HT       0.417000       1.00800           0
     15927 TIP3     2451     TIP3     OH2      OT      -0.834000       15.9994           0
     15928 TIP3     2451     TIP3     H1       HT       0.417000       1.00800           0
     15929 TIP3     2451     TIP3     H2       HT       0.417000       1.00800           0
     15930 TIP3     2452     TIP3     OH2      OT      -0.834000       15.9994           0
     15931 TIP3     2452     TIP3     H1       HT       0.417000       1.00800           0
     15932 TIP3     2452     TIP3     H2       HT       0.417000       1.00800           0
     15933 TIP3     2453     TIP3     OH2      OT      -0.834000       15.9994           0
     15934 TIP3     2453     TIP3     H1       HT       0.417000       1.00800           0
     15935 TIP3     2453     TIP3     H2       HT       0.417000       1.00800           0
     15936 TIP3     2454     TIP3     OH2      OT      -0.834000       15.9994           0
     15937 TIP3     2454     TIP3     H1       HT       0.417000       1.00800           0
     15938 TIP3     2454     TIP3     H2       HT       0.417000       1.00800           0
     15939 TIP3     2455     TIP3     OH2      OT      -0.834000       15.9994           0
     15940 TIP3     2455     TIP3     H1       HT       0.417000       1.00800           0
     15941 TIP3     2455     TIP3     H2       HT       0.417000       1.00800           0
     15942 TIP3     2456     TIP3     OH2      OT      -0.834000       15.9994           0
     15943 TIP3     2456     TIP3     H1       HT       0.417000       1.00800           0
     15944 TIP3     2456     TIP3     H2       HT       0.417000       1.00800           0
     15945 TIP3     2457     TIP3     OH2      OT      -0.834000       15.9994           0
     15946 TIP3     2457     TIP3     H1       HT       0.417000       1.00800           0
     15947 TIP3     2457     TIP3     H2       HT       0.417000       1.00800           0
     15948 TIP3     2458     TIP3     OH2      OT      -0.834000       15.9994           0
     15949 TIP3     2458     TIP3     H1       HT       0.417000       1.00800           0
     15950 TIP3     2458     TIP3     H2       HT       0.417000       1.00800           0
     15951 TIP3     2459     TIP3     OH2      OT      -0.834000       15.9994           0
     15952 TIP3     2459     TIP3     H1       HT       0.417000       1.00800           0
     15953 TIP3     2459     TIP3     H2       HT       0.417000       1.00800           0
     15954 TIP3     2460     TIP3     OH2      OT      -0.834000       15.9994           0
     15955 TIP3     2460     TIP3     H1       HT       0.417000       1.00800           0
     15956 TIP3     2460     TIP3     H2       HT       0.417000       1.00800           0
     15957 TIP3     2461     TIP3     OH2      OT      -0.834000       15.9994           0
     15958 TIP3     2461     TIP3     H1       HT       0.417000       1.00800           0
     15959 TIP3     2461     TIP3     H2       HT       0.417000       1.00800           0
     15960 TIP3     2462     TIP3     OH2      OT      -0.834000       15.9994           0
     15961 TIP3     2462     TIP3     H1       HT       0.417000       1.00800           0
     15962 TIP3     2462     TIP3     H2       HT       0.417000       1.00800           0
     15963 TIP3     2463     TIP3     OH2      OT      -0.834000       15.9994           0
     15964 TIP3     2463     TIP3     H1       HT       0.417000       1.00800           0
     15965 TIP3     2463     TIP3     H2       HT       0.417000       1.00800           0
     15966 TIP3     2464     TIP3     OH2      OT      -0.834000       15.9994           0
     15967 TIP3     2464     TIP3     H1       HT       0.417000       1.00800           0
     15968 TIP3     2464     TIP3     H2       HT       0.417000       1.00800           0
     15969 TIP3     2465     TIP3     OH2      OT      -0.834000       15.9994           0
     15970 TIP3     2465     TIP3     H1       HT       0.417000       1.00800           0
     15971 TIP3     2465     TIP3     H2       HT       0.417000       1.00800           0
     15972 TIP3     2466     TIP3     OH2      OT      -0.834000       15.9994           0
     15973 TIP3     2466     TIP3     H1       HT       0.417000       1.00800           0
     15974 TIP3     2466     TIP3     H2       HT       0.417000       1.00800           0
     15975 TIP3     2467     TIP3     OH2      OT      -0.834000       15.9994           0
     15976 TIP3     2467     TIP3     H1       HT       0.417000       1.00800           0
     15977 TIP3     2467     TIP3     H2       HT       0.417000       1.00800           0
     15978 TIP3     2468     TIP3     OH2      OT      -0.834000       15.9994           0
     15979 TIP3     2468     TIP3     H1       HT       0.417000       1.00800           0
     15980 TIP3     2468     TIP3     H2       HT       0.417000       1.00800           0
     15981 TIP3     2469     TIP3     OH2      OT      -0.834000       15.9994           0
     15982 TIP3     2469     TIP3     H1       HT       0.417000       1.00800           0
     15983 TIP3     2469     TIP3     H2       HT       0.417000       1.00800           0
     15984 TIP3     2470     TIP3     OH2      OT      -0.834000       15.9994           0
     15985 TIP3     2470     TIP3     H1       HT       0.417000       1.00800           0
     15986 TIP3     2470     TIP3     H2       HT       0.417000       1.00800           0
     15987 TIP3     2471     TIP3     OH2      OT      -0.834000       15.9994           0
     15988 TIP3     2471     TIP3     H1       HT       0.417000       1.00800           0
     15989 TIP3     2471     TIP3     H2       HT       0.417000       1.00800           0
     15990 TIP3     2472     TIP3     OH2      OT      -0.834000       15.9994           0
     15991 TIP3     2472     TIP3     H1       HT       0.417000       1.00800           0
     15992 TIP3     2472     TIP3     H2       HT       0.417000       1.00800           0
     15993 TIP3     2473     TIP3     OH2      OT      -0.834000       15.9994           0
     15994 TIP3     2473     TIP3     H1       HT       0.417000       1.00800           0
     15995 TIP3     2473     TIP3     H2       HT       0.417000       1.00800           0
     15996 TIP3     2474     TIP3     OH2      OT      -0.834000       15.9994           0
     15997 TIP3     2474     TIP3     H1       HT       0.417000       1.00800           0
     15998 TIP3     2474     TIP3     H2       HT       0.417000       1.00800           0
     15999 TIP3     2475     TIP3     OH2      OT      -0.834000       15.9994           0
     16000 TIP3     2475     TIP3     H1       HT       0.417000       1.00800           0
     16001 TIP3     2475     TIP3     H2       HT       0.417000       1.00800           0
     16002 TIP3     2476     TIP3     OH2      OT      -0.834000       15.9994           0
     16003 TIP3     2476     TIP3     H1       HT       0.417000       1.00800           0
     16004 TIP3     2476     TIP3     H2       HT       0.417000       1.00800           0
     16005 TIP3     2477     TIP3     OH2      OT      -0.834000       15.9994           0
     16006 TIP3     2477     TIP3     H1       HT       0.417000       1.00800           0
     16007 TIP3     2477     TIP3     H2       HT       0.417000       1.00800           0
     16008 TIP3     2478     TIP3     OH2      OT      -0.834000       15.9994           0
     16009 TIP3     2478     TIP3     H1       HT       0.417000       1.00800           0
     16010 TIP3     2478     TIP3     H2       HT       0.417000       1.00800           0
     16011 TIP3     2479     TIP3     OH2      OT      -0.834000       15.9994           0
     16012 TIP3     2479     TIP3     H1       HT       0.417000       1.00800           0
     16013 TIP3     2479     TIP3     H2       HT       0.417000       1.00800           0
     16014 TIP3     2480     TIP3     OH2      OT      -0.834000       15.9994           0
     16015 TIP3     2480     TIP3     H1       HT       0.417000       1.00800           0
     16016 TIP3     2480     TIP3     H2       HT       0.417000       1.00800           0
     16017 TIP3     2481     TIP3     OH2      OT      -0.834000       15.9994           0
     16018 TIP3     2481     TIP3     H1       HT       0.417000       1.00800           0
     16019 TIP3     2481     TIP3     H2       HT       0.417000       1.00800           0
     16020 TIP3     2482     TIP3     OH2      OT      -0.834000       15.9994           0
     16021 TIP3     2482     TIP3     H1       HT       0.417000       1.00800           0
     16022 TIP3     2482     TIP3     H2       HT       0.417000       1.00800           0
     16023 TIP3     2483     TIP3     OH2      OT      -0.834000       15.9994           0
     16024 TIP3     2483     TIP3     H1       HT       0.417000       1.00800           0
     16025 TIP3     2483     TIP3     H2       HT       0.417000       1.00800           0
     16026 TIP3     2484     TIP3     OH2      OT      -0.834000       15.9994           0
     16027 TIP3     2484     TIP3     H1       HT       0.417000       1.00800           0
     16028 TIP3     2484     TIP3     H2       HT       0.417000       1.00800           0
     16029 TIP3     2485     TIP3     OH2      OT      -0.834000       15.9994           0
     16030 TIP3     2485     TIP3     H1       HT       0.417000       1.00800           0
     16031 TIP3     2485     TIP3     H2       HT       0.417000       1.00800           0
     16032 TIP3     2486     TIP3     OH2      OT      -0.834000       15.9994           0
     16033 TIP3     2486     TIP3     H1       HT       0.417000       1.00800           0
     16034 TIP3     2486     TIP3     H2       HT       0.417000       1.00800           0
     16035 TIP3     2487     TIP3     OH2      OT      -0.834000       15.9994           0
     16036 TIP3     2487     TIP3     H1       HT       0.417000       1.00800           0
     16037 TIP3     2487     TIP3     H2       HT       0.417000       1.00800           0
     16038 TIP3     2488     TIP3     OH2      OT      -0.834000       15.9994           0
     16039 TIP3     2488     TIP3     H1       HT       0.417000       1.00800           0
     16040 TIP3     2488     TIP3     H2       HT       0.417000       1.00800           0
     16041 TIP3     2489     TIP3     OH2      OT      -0.834000       15.9994           0
     16042 TIP3     2489     TIP3     H1       HT       0.417000       1.00800           0
     16043 TIP3     2489     TIP3     H2       HT       0.417000       1.00800           0
     16044 TIP3     2490     TIP3     OH2      OT      -0.834000       15.9994           0
     16045 TIP3     2490     TIP3     H1       HT       0.417000       1.00800           0
     16046 TIP3     2490     TIP3     H2       HT       0.417000       1.00800           0
     16047 TIP3     2491     TIP3     OH2      OT      -0.834000       15.9994           0
     16048 TIP3     2491     TIP3     H1       HT       0.417000       1.00800           0
     16049 TIP3     2491     TIP3     H2       HT       0.417000       1.00800           0
     16050 TIP3     2492     TIP3     OH2      OT      -0.834000       15.9994           0
     16051 TIP3     2492     TIP3     H1       HT       0.417000       1.00800           0
     16052 TIP3     2492     TIP3     H2       HT       0.417000       1.00800           0
     16053 TIP3     2493     TIP3     OH2      OT      -0.834000       15.9994           0
     16054 TIP3     2493     TIP3     H1       HT       0.417000       1.00800           0
     16055 TIP3     2493     TIP3     H2       HT       0.417000       1.00800           0
     16056 TIP3     2494     TIP3     OH2      OT      -0.834000       15.9994           0
     16057 TIP3     2494     TIP3     H1       HT       0.417000       1.00800           0
     16058 TIP3     2494     TIP3     H2       HT       0.417000       1.00800           0
     16059 TIP3     2495     TIP3     OH2      OT      -0.834000       15.9994           0
     16060 TIP3     2495     TIP3     H1       HT       0.417000       1.00800           0
     16061 TIP3     2495     TIP3     H2       HT       0.417000       1.00800           0
     16062 TIP3     2496     TIP3     OH2      OT      -0.834000       15.9994           0
     16063 TIP3     2496     TIP3     H1       HT       0.417000       1.00800           0
     16064 TIP3     2496     TIP3     H2       HT       0.417000       1.00800           0
     16065 TIP3     2497     TIP3     OH2      OT      -0.834000       15.9994           0
     16066 TIP3     2497     TIP3     H1       HT       0.417000       1.00800           0
     16067 TIP3     2497     TIP3     H2       HT       0.417000       1.00800           0
     16068 TIP3     2498     TIP3     OH2      OT      -0.834000       15.9994           0
     16069 TIP3     2498     TIP3     H1       HT       0.417000       1.00800           0
     16070 TIP3     2498     TIP3     H2       HT       0.417000       1.00800           0
     16071 TIP3     2499     TIP3     OH2      OT      -0.834000       15.9994           0
     16072 TIP3     2499     TIP3     H1       HT       0.417000       1.00800           0
     16073 TIP3     2499     TIP3     H2       HT       0.417000       1.00800           0
     16074 TIP3     2500     TIP3     OH2      OT      -0.834000       15.9994           0
     16075 TIP3     2500     TIP3     H1       HT       0.417000       1.00800           0
     16076 TIP3     2500     TIP3     H2       HT       0.417000       1.00800           0
     16077 TIP3     2501     TIP3     OH2      OT      -0.834000       15.9994           0
     16078 TIP3     2501     TIP3     H1       HT       0.417000       1.00800           0
     16079 TIP3     2501     TIP3     H2       HT       0.417000       1.00800           0
     16080 TIP3     2502     TIP3     OH2      OT      -0.834000       15.9994           0
     16081 TIP3     2502     TIP3     H1       HT       0.417000       1.00800           0
     16082 TIP3     2502     TIP3     H2       HT       0.417000       1.00800           0
     16083 TIP3     2503     TIP3     OH2      OT      -0.834000       15.9994           0
     16084 TIP3     2503     TIP3     H1       HT       0.417000       1.00800           0
     16085 TIP3     2503     TIP3     H2       HT       0.417000       1.00800           0
     16086 TIP3     2504     TIP3     OH2      OT      -0.834000       15.9994           0
     16087 TIP3     2504     TIP3     H1       HT       0.417000       1.00800           0
     16088 TIP3     2504     TIP3     H2       HT       0.417000       1.00800           0
     16089 TIP3     2505     TIP3     OH2      OT      -0.834000       15.9994           0
     16090 TIP3     2505     TIP3     H1       HT       0.417000       1.00800           0
     16091 TIP3     2505     TIP3     H2       HT       0.417000       1.00800           0
     16092 TIP3     2506     TIP3     OH2      OT      -0.834000       15.9994           0
     16093 TIP3     2506     TIP3     H1       HT       0.417000       1.00800           0
     16094 TIP3     2506     TIP3     H2       HT       0.417000       1.00800           0
     16095 TIP3     2507     TIP3     OH2      OT      -0.834000       15.9994           0
     16096 TIP3     2507     TIP3     H1       HT       0.417000       1.00800           0
     16097 TIP3     2507     TIP3     H2       HT       0.417000       1.00800           0
     16098 TIP3     2508     TIP3     OH2      OT      -0.834000       15.9994           0
     16099 TIP3     2508     TIP3     H1       HT       0.417000       1.00800           0
     16100 TIP3     2508     TIP3     H2       HT       0.417000       1.00800           0
     16101 TIP3     2509     TIP3     OH2      OT      -0.834000       15.9994           0
     16102 TIP3     2509     TIP3     H1       HT       0.417000       1.00800           0
     16103 TIP3     2509     TIP3     H2       HT       0.417000       1.00800           0
     16104 TIP3     2510     TIP3     OH2      OT      -0.834000       15.9994           0
     16105 TIP3     2510     TIP3     H1       HT       0.417000       1.00800           0
     16106 TIP3     2510     TIP3     H2       HT       0.417000       1.00800           0
     16107 TIP3     2511     TIP3     OH2      OT      -0.834000       15.9994           0
     16108 TIP3     2511     TIP3     H1       HT       0.417000       1.00800           0
     16109 TIP3     2511     TIP3     H2       HT       0.417000       1.00800           0
     16110 TIP3     2512     TIP3     OH2      OT      -0.834000       15.9994           0
     16111 TIP3     2512     TIP3     H1       HT       0.417000       1.00800           0
     16112 TIP3     2512     TIP3     H2       HT       0.417000       1.00800           0
     16113 TIP3     2513     TIP3     OH2      OT      -0.834000       15.9994           0
     16114 TIP3     2513     TIP3     H1       HT       0.417000       1.00800           0
     16115 TIP3     2513     TIP3     H2       HT       0.417000       1.00800           0
     16116 TIP3     2514     TIP3     OH2      OT      -0.834000       15.9994           0
     16117 TIP3     2514     TIP3     H1       HT       0.417000       1.00800           0
     16118 TIP3     2514     TIP3     H2       HT       0.417000       1.00800           0
     16119 TIP3     2515     TIP3     OH2      OT      -0.834000       15.9994           0
     16120 TIP3     2515     TIP3     H1       HT       0.417000       1.00800           0
     16121 TIP3     2515     TIP3     H2       HT       0.417000       1.00800           0
     16122 TIP3     2516     TIP3     OH2      OT      -0.834000       15.9994           0
     16123 TIP3     2516     TIP3     H1       HT       0.417000       1.00800           0
     16124 TIP3     2516     TIP3     H2       HT       0.417000       1.00800           0
     16125 TIP3     2517     TIP3     OH2      OT      -0.834000       15.9994           0
     16126 TIP3     2517     TIP3     H1       HT       0.417000       1.00800           0
     16127 TIP3     2517     TIP3     H2       HT       0.417000       1.00800           0
     16128 TIP3     2518     TIP3     OH2      OT      -0.834000       15.9994           0
     16129 TIP3     2518     TIP3     H1       HT       0.417000       1.00800           0
     16130 TIP3     2518     TIP3     H2       HT       0.417000       1.00800           0
     16131 TIP3     2519     TIP3     OH2      OT      -0.834000       15.9994           0
     16132 TIP3     2519     TIP3     H1       HT       0.417000       1.00800           0
     16133 TIP3     2519     TIP3     H2       HT       0.417000       1.00800           0
     16134 TIP3     2520     TIP3     OH2      OT      -0.834000       15.9994           0
     16135 TIP3     2520     TIP3     H1       HT       0.417000       1.00800           0
     16136 TIP3     2520     TIP3     H2       HT       0.417000       1.00800           0
     16137 TIP3     2521     TIP3     OH2      OT      -0.834000       15.9994           0
     16138 TIP3     2521     TIP3     H1       HT       0.417000       1.00800           0
     16139 TIP3     2521     TIP3     H2       HT       0.417000       1.00800           0
     16140 TIP3     2522     TIP3     OH2      OT      -0.834000       15.9994           0
     16141 TIP3     2522     TIP3     H1       HT       0.417000       1.00800           0
     16142 TIP3     2522     TIP3     H2       HT       0.417000       1.00800           0
     16143 TIP3     2523     TIP3     OH2      OT      -0.834000       15.9994           0
     16144 TIP3     2523     TIP3     H1       HT       0.417000       1.00800           0
     16145 TIP3     2523     TIP3     H2       HT       0.417000       1.00800           0
     16146 TIP3     2524     TIP3     OH2      OT      -0.834000       15.9994           0
     16147 TIP3     2524     TIP3     H1       HT       0.417000       1.00800           0
     16148 TIP3     2524     TIP3     H2       HT       0.417000       1.00800           0
     16149 TIP3     2525     TIP3     OH2      OT      -0.834000       15.9994           0
     16150 TIP3     2525     TIP3     H1       HT       0.417000       1.00800           0
     16151 TIP3     2525     TIP3     H2       HT       0.417000       1.00800           0
     16152 TIP3     2526     TIP3     OH2      OT      -0.834000       15.9994           0
     16153 TIP3     2526     TIP3     H1       HT       0.417000       1.00800           0
     16154 TIP3     2526     TIP3     H2       HT       0.417000       1.00800           0
     16155 TIP3     2527     TIP3     OH2      OT      -0.834000       15.9994           0
     16156 TIP3     2527     TIP3     H1       HT       0.417000       1.00800           0
     16157 TIP3     2527     TIP3     H2       HT       0.417000       1.00800           0
     16158 TIP3     2528     TIP3     OH2      OT      -0.834000       15.9994           0
     16159 TIP3     2528     TIP3     H1       HT       0.417000       1.00800           0
     16160 TIP3     2528     TIP3     H2       HT       0.417000       1.00800           0
     16161 TIP3     2529     TIP3     OH2      OT      -0.834000       15.9994           0
     16162 TIP3     2529     TIP3     H1       HT       0.417000       1.00800           0
     16163 TIP3     2529     TIP3     H2       HT       0.417000       1.00800           0
     16164 TIP3     2530     TIP3     OH2      OT      -0.834000       15.9994           0
     16165 TIP3     2530     TIP3     H1       HT       0.417000       1.00800           0
     16166 TIP3     2530     TIP3     H2       HT       0.417000       1.00800           0
     16167 TIP3     2531     TIP3     OH2      OT      -0.834000       15.9994           0
     16168 TIP3     2531     TIP3     H1       HT       0.417000       1.00800           0
     16169 TIP3     2531     TIP3     H2       HT       0.417000       1.00800           0
     16170 TIP3     2532     TIP3     OH2      OT      -0.834000       15.9994           0
     16171 TIP3     2532     TIP3     H1       HT       0.417000       1.00800           0
     16172 TIP3     2532     TIP3     H2       HT       0.417000       1.00800           0
     16173 TIP3     2533     TIP3     OH2      OT      -0.834000       15.9994           0
     16174 TIP3     2533     TIP3     H1       HT       0.417000       1.00800           0
     16175 TIP3     2533     TIP3     H2       HT       0.417000       1.00800           0
     16176 TIP3     2534     TIP3     OH2      OT      -0.834000       15.9994           0
     16177 TIP3     2534     TIP3     H1       HT       0.417000       1.00800           0
     16178 TIP3     2534     TIP3     H2       HT       0.417000       1.00800           0
     16179 TIP3     2535     TIP3     OH2      OT      -0.834000       15.9994           0
     16180 TIP3     2535     TIP3     H1       HT       0.417000       1.00800           0
     16181 TIP3     2535     TIP3     H2       HT       0.417000       1.00800           0
     16182 TIP3     2536     TIP3     OH2      OT      -0.834000       15.9994           0
     16183 TIP3     2536     TIP3     H1       HT       0.417000       1.00800           0
     16184 TIP3     2536     TIP3     H2       HT       0.417000       1.00800           0
     16185 TIP3     2537     TIP3     OH2      OT      -0.834000       15.9994           0
     16186 TIP3     2537     TIP3     H1       HT       0.417000       1.00800           0
     16187 TIP3     2537     TIP3     H2       HT       0.417000       1.00800           0
     16188 TIP3     2538     TIP3     OH2      OT      -0.834000       15.9994           0
     16189 TIP3     2538     TIP3     H1       HT       0.417000       1.00800           0
     16190 TIP3     2538     TIP3     H2       HT       0.417000       1.00800           0
     16191 TIP3     2539     TIP3     OH2      OT      -0.834000       15.9994           0
     16192 TIP3     2539     TIP3     H1       HT       0.417000       1.00800           0
     16193 TIP3     2539     TIP3     H2       HT       0.417000       1.00800           0
     16194 TIP3     2540     TIP3     OH2      OT      -0.834000       15.9994           0
     16195 TIP3     2540     TIP3     H1       HT       0.417000       1.00800           0
     16196 TIP3     2540     TIP3     H2       HT       0.417000       1.00800           0
     16197 TIP3     2541     TIP3     OH2      OT      -0.834000       15.9994           0
     16198 TIP3     2541     TIP3     H1       HT       0.417000       1.00800           0
     16199 TIP3     2541     TIP3     H2       HT       0.417000       1.00800           0
     16200 TIP3     2542     TIP3     OH2      OT      -0.834000       15.9994           0
     16201 TIP3     2542     TIP3     H1       HT       0.417000       1.00800           0
     16202 TIP3     2542     TIP3     H2       HT       0.417000       1.00800           0
     16203 TIP3     2543     TIP3     OH2      OT      -0.834000       15.9994           0
     16204 TIP3     2543     TIP3     H1       HT       0.417000       1.00800           0
     16205 TIP3     2543     TIP3     H2       HT       0.417000       1.00800           0
     16206 TIP3     2544     TIP3     OH2      OT      -0.834000       15.9994           0
     16207 TIP3     2544     TIP3     H1       HT       0.417000       1.00800           0
     16208 TIP3     2544     TIP3     H2       HT       0.417000       1.00800           0
     16209 TIP3     2545     TIP3     OH2      OT      -0.834000       15.9994           0
     16210 TIP3     2545     TIP3     H1       HT       0.417000       1.00800           0
     16211 TIP3     2545     TIP3     H2       HT       0.417000       1.00800           0
     16212 TIP3     2546     TIP3     OH2      OT      -0.834000       15.9994           0
     16213 TIP3     2546     TIP3     H1       HT       0.417000       1.00800           0
     16214 TIP3     2546     TIP3     H2       HT       0.417000       1.00800           0
     16215 TIP3     2547     TIP3     OH2      OT      -0.834000       15.9994           0
     16216 TIP3     2547     TIP3     H1       HT       0.417000       1.00800           0
     16217 TIP3     2547     TIP3     H2       HT       0.417000       1.00800           0
     16218 TIP3     2548     TIP3     OH2      OT      -0.834000       15.9994           0
     16219 TIP3     2548     TIP3     H1       HT       0.417000       1.00800           0
     16220 TIP3     2548     TIP3     H2       HT       0.417000       1.00800           0
     16221 TIP3     2549     TIP3     OH2      OT      -0.834000       15.9994           0
     16222 TIP3     2549     TIP3     H1       HT       0.417000       1.00800           0
     16223 TIP3     2549     TIP3     H2       HT       0.417000       1.00800           0
     16224 TIP3     2550     TIP3     OH2      OT      -0.834000       15.9994           0
     16225 TIP3     2550     TIP3     H1       HT       0.417000       1.00800           0
     16226 TIP3     2550     TIP3     H2       HT       0.417000       1.00800           0
     16227 TIP3     2551     TIP3     OH2      OT      -0.834000       15.9994           0
     16228 TIP3     2551     TIP3     H1       HT       0.417000       1.00800           0
     16229 TIP3     2551     TIP3     H2       HT       0.417000       1.00800           0
     16230 TIP3     2552     TIP3     OH2      OT      -0.834000       15.9994           0
     16231 TIP3     2552     TIP3     H1       HT       0.417000       1.00800           0
     16232 TIP3     2552     TIP3     H2       HT       0.417000       1.00800           0
     16233 TIP3     2553     TIP3     OH2      OT      -0.834000       15.9994           0
     16234 TIP3     2553     TIP3     H1       HT       0.417000       1.00800           0
     16235 TIP3     2553     TIP3     H2       HT       0.417000       1.00800           0
     16236 TIP3     2554     TIP3     OH2      OT      -0.834000       15.9994           0
     16237 TIP3     2554     TIP3     H1       HT       0.417000       1.00800           0
     16238 TIP3     2554     TIP3     H2       HT       0.417000       1.00800           0
     16239 TIP3     2555     TIP3     OH2      OT      -0.834000       15.9994           0
     16240 TIP3     2555     TIP3     H1       HT       0.417000       1.00800           0
     16241 TIP3     2555     TIP3     H2       HT       0.417000       1.00800           0
     16242 TIP3     2556     TIP3     OH2      OT      -0.834000       15.9994           0
     16243 TIP3     2556     TIP3     H1       HT       0.417000       1.00800           0
     16244 TIP3     2556     TIP3     H2       HT       0.417000       1.00800           0
     16245 TIP3     2557     TIP3     OH2      OT      -0.834000       15.9994           0
     16246 TIP3     2557     TIP3     H1       HT       0.417000       1.00800           0
     16247 TIP3     2557     TIP3     H2       HT       0.417000       1.00800           0
     16248 TIP3     2558     TIP3     OH2      OT      -0.834000       15.9994           0
     16249 TIP3     2558     TIP3     H1       HT       0.417000       1.00800           0
     16250 TIP3     2558     TIP3     H2       HT       0.417000       1.00800           0
     16251 TIP3     2559     TIP3     OH2      OT      -0.834000       15.9994           0
     16252 TIP3     2559     TIP3     H1       HT       0.417000       1.00800           0
     16253 TIP3     2559     TIP3     H2       HT       0.417000       1.00800           0
     16254 TIP3     2560     TIP3     OH2      OT      -0.834000       15.9994           0
     16255 TIP3     2560     TIP3     H1       HT       0.417000       1.00800           0
     16256 TIP3     2560     TIP3     H2       HT       0.417000       1.00800           0
     16257 TIP3     2561     TIP3     OH2      OT      -0.834000       15.9994           0
     16258 TIP3     2561     TIP3     H1       HT       0.417000       1.00800           0
     16259 TIP3     2561     TIP3     H2       HT       0.417000       1.00800           0
     16260 TIP3     2562     TIP3     OH2      OT      -0.834000       15.9994           0
     16261 TIP3     2562     TIP3     H1       HT       0.417000       1.00800           0
     16262 TIP3     2562     TIP3     H2       HT       0.417000       1.00800           0
     16263 TIP3     2563     TIP3     OH2      OT      -0.834000       15.9994           0
     16264 TIP3     2563     TIP3     H1       HT       0.417000       1.00800           0
     16265 TIP3     2563     TIP3     H2       HT       0.417000       1.00800           0
     16266 TIP3     2564     TIP3     OH2      OT      -0.834000       15.9994           0
     16267 TIP3     2564     TIP3     H1       HT       0.417000       1.00800           0
     16268 TIP3     2564     TIP3     H2       HT       0.417000       1.00800           0
     16269 TIP3     2565     TIP3     OH2      OT      -0.834000       15.9994           0
     16270 TIP3     2565     TIP3     H1       HT       0.417000       1.00800           0
     16271 TIP3     2565     TIP3     H2       HT       0.417000       1.00800           0
     16272 TIP3     2566     TIP3     OH2      OT      -0.834000       15.9994           0
     16273 TIP3     2566     TIP3     H1       HT       0.417000       1.00800           0
     16274 TIP3     2566     TIP3     H2       HT       0.417000       1.00800           0
     16275 TIP3     2567     TIP3     OH2      OT      -0.834000       15.9994           0
     16276 TIP3     2567     TIP3     H1       HT       0.417000       1.00800           0
     16277 TIP3     2567     TIP3     H2       HT       0.417000       1.00800           0
     16278 TIP3     2568     TIP3     OH2      OT      -0.834000       15.9994           0
     16279 TIP3     2568     TIP3     H1       HT       0.417000       1.00800           0
     16280 TIP3     2568     TIP3     H2       HT       0.417000       1.00800           0
     16281 TIP3     2569     TIP3     OH2      OT      -0.834000       15.9994           0
     16282 TIP3     2569     TIP3     H1       HT       0.417000       1.00800           0
     16283 TIP3     2569     TIP3     H2       HT       0.417000       1.00800           0
     16284 TIP3     2570     TIP3     OH2      OT      -0.834000       15.9994           0
     16285 TIP3     2570     TIP3     H1       HT       0.417000       1.00800           0
     16286 TIP3     2570     TIP3     H2       HT       0.417000       1.00800           0
     16287 TIP3     2571     TIP3     OH2      OT      -0.834000       15.9994           0
     16288 TIP3     2571     TIP3     H1       HT       0.417000       1.00800           0
     16289 TIP3     2571     TIP3     H2       HT       0.417000       1.00800           0
     16290 TIP3     2572     TIP3     OH2      OT      -0.834000       15.9994           0
     16291 TIP3     2572     TIP3     H1       HT       0.417000       1.00800           0
     16292 TIP3     2572     TIP3     H2       HT       0.417000       1.00800           0
     16293 TIP3     2573     TIP3     OH2      OT      -0.834000       15.9994           0
     16294 TIP3     2573     TIP3     H1       HT       0.417000       1.00800           0
     16295 TIP3     2573     TIP3     H2       HT       0.417000       1.00800           0
     16296 TIP3     2574     TIP3     OH2      OT      -0.834000       15.9994           0
     16297 TIP3     2574     TIP3     H1       HT       0.417000       1.00800           0
     16298 TIP3     2574     TIP3     H2       HT       0.417000       1.00800           0
     16299 TIP3     2575     TIP3     OH2      OT      -0.834000       15.9994           0
     16300 TIP3     2575     TIP3     H1       HT       0.417000       1.00800           0
     16301 TIP3     2575     TIP3     H2       HT       0.417000       1.00800           0
     16302 TIP3     2576     TIP3     OH2      OT      -0.834000       15.9994           0
     16303 TIP3     2576     TIP3     H1       HT       0.417000       1.00800           0
     16304 TIP3     2576     TIP3     H2       HT       0.417000       1.00800           0
     16305 TIP3     2577     TIP3     OH2      OT      -0.834000       15.9994           0
     16306 TIP3     2577     TIP3     H1       HT       0.417000       1.00800           0
     16307 TIP3     2577     TIP3     H2       HT       0.417000       1.00800           0
     16308 TIP3     2578     TIP3     OH2      OT      -0.834000       15.9994           0
     16309 TIP3     2578     TIP3     H1       HT       0.417000       1.00800           0
     16310 TIP3     2578     TIP3     H2       HT       0.417000       1.00800           0
     16311 TIP3     2579     TIP3     OH2      OT      -0.834000       15.9994           0
     16312 TIP3     2579     TIP3     H1       HT       0.417000       1.00800           0
     16313 TIP3     2579     TIP3     H2       HT       0.417000       1.00800           0
     16314 TIP3     2580     TIP3     OH2      OT      -0.834000       15.9994           0
     16315 TIP3     2580     TIP3     H1       HT       0.417000       1.00800           0
     16316 TIP3     2580     TIP3     H2       HT       0.417000       1.00800           0
     16317 TIP3     2581     TIP3     OH2      OT      -0.834000       15.9994           0
     16318 TIP3     2581     TIP3     H1       HT       0.417000       1.00800           0
     16319 TIP3     2581     TIP3     H2       HT       0.417000       1.00800           0
     16320 TIP3     2582     TIP3     OH2      OT      -0.834000       15.9994           0
     16321 TIP3     2582     TIP3     H1       HT       0.417000       1.00800           0
     16322 TIP3     2582     TIP3     H2       HT       0.417000       1.00800           0
     16323 TIP3     2583     TIP3     OH2      OT      -0.834000       15.9994           0
     16324 TIP3     2583     TIP3     H1       HT       0.417000       1.00800           0
     16325 TIP3     2583     TIP3     H2       HT       0.417000       1.00800           0
     16326 TIP3     2584     TIP3     OH2      OT      -0.834000       15.9994           0
     16327 TIP3     2584     TIP3     H1       HT       0.417000       1.00800           0
     16328 TIP3     2584     TIP3     H2       HT       0.417000       1.00800           0
     16329 TIP3     2585     TIP3     OH2      OT      -0.834000       15.9994           0
     16330 TIP3     2585     TIP3     H1       HT       0.417000       1.00800           0
     16331 TIP3     2585     TIP3     H2       HT       0.417000       1.00800           0
     16332 TIP3     2586     TIP3     OH2      OT      -0.834000       15.9994           0
     16333 TIP3     2586     TIP3     H1       HT       0.417000       1.00800           0
     16334 TIP3     2586     TIP3     H2       HT       0.417000       1.00800           0
     16335 TIP3     2587     TIP3     OH2      OT      -0.834000       15.9994           0
     16336 TIP3     2587     TIP3     H1       HT       0.417000       1.00800           0
     16337 TIP3     2587     TIP3     H2       HT       0.417000       1.00800           0
     16338 TIP3     2588     TIP3     OH2      OT      -0.834000       15.9994           0
     16339 TIP3     2588     TIP3     H1       HT       0.417000       1.00800           0
     16340 TIP3     2588     TIP3     H2       HT       0.417000       1.00800           0
     16341 TIP3     2589     TIP3     OH2      OT      -0.834000       15.9994           0
     16342 TIP3     2589     TIP3     H1       HT       0.417000       1.00800           0
     16343 TIP3     2589     TIP3     H2       HT       0.417000       1.00800           0
     16344 TIP3     2590     TIP3     OH2      OT      -0.834000       15.9994           0
     16345 TIP3     2590     TIP3     H1       HT       0.417000       1.00800           0
     16346 TIP3     2590     TIP3     H2       HT       0.417000       1.00800           0
     16347 TIP3     2591     TIP3     OH2      OT      -0.834000       15.9994           0
     16348 TIP3     2591     TIP3     H1       HT       0.417000       1.00800           0
     16349 TIP3     2591     TIP3     H2       HT       0.417000       1.00800           0
     16350 TIP3     2592     TIP3     OH2      OT      -0.834000       15.9994           0
     16351 TIP3     2592     TIP3     H1       HT       0.417000       1.00800           0
     16352 TIP3     2592     TIP3     H2       HT       0.417000       1.00800           0
     16353 TIP3     2593     TIP3     OH2      OT      -0.834000       15.9994           0
     16354 TIP3     2593     TIP3     H1       HT       0.417000       1.00800           0
     16355 TIP3     2593     TIP3     H2       HT       0.417000       1.00800           0
     16356 TIP3     2594     TIP3     OH2      OT      -0.834000       15.9994           0
     16357 TIP3     2594     TIP3     H1       HT       0.417000       1.00800           0
     16358 TIP3     2594     TIP3     H2       HT       0.417000       1.00800           0
     16359 TIP3     2595     TIP3     OH2      OT      -0.834000       15.9994           0
     16360 TIP3     2595     TIP3     H1       HT       0.417000       1.00800           0
     16361 TIP3     2595     TIP3     H2       HT       0.417000       1.00800           0
     16362 TIP3     2596     TIP3     OH2      OT      -0.834000       15.9994           0
     16363 TIP3     2596     TIP3     H1       HT       0.417000       1.00800           0
     16364 TIP3     2596     TIP3     H2       HT       0.417000       1.00800           0
     16365 TIP3     2597     TIP3     OH2      OT      -0.834000       15.9994           0
     16366 TIP3     2597     TIP3     H1       HT       0.417000       1.00800           0
     16367 TIP3     2597     TIP3     H2       HT       0.417000       1.00800           0
     16368 TIP3     2598     TIP3     OH2      OT      -0.834000       15.9994           0
     16369 TIP3     2598     TIP3     H1       HT       0.417000       1.00800           0
     16370 TIP3     2598     TIP3     H2       HT       0.417000       1.00800           0
     16371 TIP3     2599     TIP3     OH2      OT      -0.834000       15.9994           0
     16372 TIP3     2599     TIP3     H1       HT       0.417000       1.00800           0
     16373 TIP3     2599     TIP3     H2       HT       0.417000       1.00800           0
     16374 TIP3     2600     TIP3     OH2      OT      -0.834000       15.9994           0
     16375 TIP3     2600     TIP3     H1       HT       0.417000       1.00800           0
     16376 TIP3     2600     TIP3     H2       HT       0.417000       1.00800           0
     16377 TIP3     2601     TIP3     OH2      OT      -0.834000       15.9994           0
     16378 TIP3     2601     TIP3     H1       HT       0.417000       1.00800           0
     16379 TIP3     2601     TIP3     H2       HT       0.417000       1.00800           0
     16380 TIP3     2602     TIP3     OH2      OT      -0.834000       15.9994           0
     16381 TIP3     2602     TIP3     H1       HT       0.417000       1.00800           0
     16382 TIP3     2602     TIP3     H2       HT       0.417000       1.00800           0
     16383 TIP3     2603     TIP3     OH2      OT      -0.834000       15.9994           0
     16384 TIP3     2603     TIP3     H1       HT       0.417000       1.00800           0
     16385 TIP3     2603     TIP3     H2       HT       0.417000       1.00800           0
     16386 TIP3     2604     TIP3     OH2      OT      -0.834000       15.9994           0
     16387 TIP3     2604     TIP3     H1       HT       0.417000       1.00800           0
     16388 TIP3     2604     TIP3     H2       HT       0.417000       1.00800           0
     16389 TIP3     2605     TIP3     OH2      OT      -0.834000       15.9994           0
     16390 TIP3     2605     TIP3     H1       HT       0.417000       1.00800           0
     16391 TIP3     2605     TIP3     H2       HT       0.417000       1.00800           0
     16392 TIP3     2606     TIP3     OH2      OT      -0.834000       15.9994           0
     16393 TIP3     2606     TIP3     H1       HT       0.417000       1.00800           0
     16394 TIP3     2606     TIP3     H2       HT       0.417000       1.00800           0
     16395 TIP3     2607     TIP3     OH2      OT      -0.834000       15.9994           0
     16396 TIP3     2607     TIP3     H1       HT       0.417000       1.00800           0
     16397 TIP3     2607     TIP3     H2       HT       0.417000       1.00800           0
     16398 TIP3     2608     TIP3     OH2      OT      -0.834000       15.9994           0
     16399 TIP3     2608     TIP3     H1       HT       0.417000       1.00800           0
     16400 TIP3     2608     TIP3     H2       HT       0.417000       1.00800           0
     16401 TIP3     2609     TIP3     OH2      OT      -0.834000       15.9994           0
     16402 TIP3     2609     TIP3     H1       HT       0.417000       1.00800           0
     16403 TIP3     2609     TIP3     H2       HT       0.417000       1.00800           0
     16404 TIP3     2610     TIP3     OH2      OT      -0.834000       15.9994           0
     16405 TIP3     2610     TIP3     H1       HT       0.417000       1.00800           0
     16406 TIP3     2610     TIP3     H2       HT       0.417000       1.00800           0
     16407 TIP3     2611     TIP3     OH2      OT      -0.834000       15.9994           0
     16408 TIP3     2611     TIP3     H1       HT       0.417000       1.00800           0
     16409 TIP3     2611     TIP3     H2       HT       0.417000       1.00800           0
     16410 TIP3     2612     TIP3     OH2      OT      -0.834000       15.9994           0
     16411 TIP3     2612     TIP3     H1       HT       0.417000       1.00800           0
     16412 TIP3     2612     TIP3     H2       HT       0.417000       1.00800           0
     16413 TIP3     2613     TIP3     OH2      OT      -0.834000       15.9994           0
     16414 TIP3     2613     TIP3     H1       HT       0.417000       1.00800           0
     16415 TIP3     2613     TIP3     H2       HT       0.417000       1.00800           0
     16416 TIP3     2614     TIP3     OH2      OT      -0.834000       15.9994           0
     16417 TIP3     2614     TIP3     H1       HT       0.417000       1.00800           0
     16418 TIP3     2614     TIP3     H2       HT       0.417000       1.00800           0
     16419 TIP3     2615     TIP3     OH2      OT      -0.834000       15.9994           0
     16420 TIP3     2615     TIP3     H1       HT       0.417000       1.00800           0
     16421 TIP3     2615     TIP3     H2       HT       0.417000       1.00800           0
     16422 TIP3     2616     TIP3     OH2      OT      -0.834000       15.9994           0
     16423 TIP3     2616     TIP3     H1       HT       0.417000       1.00800           0
     16424 TIP3     2616     TIP3     H2       HT       0.417000       1.00800           0
     16425 TIP3     2617     TIP3     OH2      OT      -0.834000       15.9994           0
     16426 TIP3     2617     TIP3     H1       HT       0.417000       1.00800           0
     16427 TIP3     2617     TIP3     H2       HT       0.417000       1.00800           0
     16428 TIP3     2618     TIP3     OH2      OT      -0.834000       15.9994           0
     16429 TIP3     2618     TIP3     H1       HT       0.417000       1.00800           0
     16430 TIP3     2618     TIP3     H2       HT       0.417000       1.00800           0
     16431 TIP3     2619     TIP3     OH2      OT      -0.834000       15.9994           0
     16432 TIP3     2619     TIP3     H1       HT       0.417000       1.00800           0
     16433 TIP3     2619     TIP3     H2       HT       0.417000       1.00800           0
     16434 TIP3     2620     TIP3     OH2      OT      -0.834000       15.9994           0
     16435 TIP3     2620     TIP3     H1       HT       0.417000       1.00800           0
     16436 TIP3     2620     TIP3     H2       HT       0.417000       1.00800           0
     16437 TIP3     2621     TIP3     OH2      OT      -0.834000       15.9994           0
     16438 TIP3     2621     TIP3     H1       HT       0.417000       1.00800           0
     16439 TIP3     2621     TIP3     H2       HT       0.417000       1.00800           0
     16440 TIP3     2622     TIP3     OH2      OT      -0.834000       15.9994           0
     16441 TIP3     2622     TIP3     H1       HT       0.417000       1.00800           0
     16442 TIP3     2622     TIP3     H2       HT       0.417000       1.00800           0
     16443 TIP3     2623     TIP3     OH2      OT      -0.834000       15.9994           0
     16444 TIP3     2623     TIP3     H1       HT       0.417000       1.00800           0
     16445 TIP3     2623     TIP3     H2       HT       0.417000       1.00800           0
     16446 TIP3     2624     TIP3     OH2      OT      -0.834000       15.9994           0
     16447 TIP3     2624     TIP3     H1       HT       0.417000       1.00800           0
     16448 TIP3     2624     TIP3     H2       HT       0.417000       1.00800           0
     16449 TIP3     2625     TIP3     OH2      OT      -0.834000       15.9994           0
     16450 TIP3     2625     TIP3     H1       HT       0.417000       1.00800           0
     16451 TIP3     2625     TIP3     H2       HT       0.417000       1.00800           0
     16452 TIP3     2626     TIP3     OH2      OT      -0.834000       15.9994           0
     16453 TIP3     2626     TIP3     H1       HT       0.417000       1.00800           0
     16454 TIP3     2626     TIP3     H2       HT       0.417000       1.00800           0
     16455 TIP3     2627     TIP3     OH2      OT      -0.834000       15.9994           0
     16456 TIP3     2627     TIP3     H1       HT       0.417000       1.00800           0
     16457 TIP3     2627     TIP3     H2       HT       0.417000       1.00800           0
     16458 TIP3     2628     TIP3     OH2      OT      -0.834000       15.9994           0
     16459 TIP3     2628     TIP3     H1       HT       0.417000       1.00800           0
     16460 TIP3     2628     TIP3     H2       HT       0.417000       1.00800           0
     16461 TIP3     2629     TIP3     OH2      OT      -0.834000       15.9994           0
     16462 TIP3     2629     TIP3     H1       HT       0.417000       1.00800           0
     16463 TIP3     2629     TIP3     H2       HT       0.417000       1.00800           0
     16464 TIP3     2630     TIP3     OH2      OT      -0.834000       15.9994           0
     16465 TIP3     2630     TIP3     H1       HT       0.417000       1.00800           0
     16466 TIP3     2630     TIP3     H2       HT       0.417000       1.00800           0
     16467 TIP3     2631     TIP3     OH2      OT      -0.834000       15.9994           0
     16468 TIP3     2631     TIP3     H1       HT       0.417000       1.00800           0
     16469 TIP3     2631     TIP3     H2       HT       0.417000       1.00800           0
     16470 TIP3     2632     TIP3     OH2      OT      -0.834000       15.9994           0
     16471 TIP3     2632     TIP3     H1       HT       0.417000       1.00800           0
     16472 TIP3     2632     TIP3     H2       HT       0.417000       1.00800           0
     16473 TIP3     2633     TIP3     OH2      OT      -0.834000       15.9994           0
     16474 TIP3     2633     TIP3     H1       HT       0.417000       1.00800           0
     16475 TIP3     2633     TIP3     H2       HT       0.417000       1.00800           0
     16476 TIP3     2634     TIP3     OH2      OT      -0.834000       15.9994           0
     16477 TIP3     2634     TIP3     H1       HT       0.417000       1.00800           0
     16478 TIP3     2634     TIP3     H2       HT       0.417000       1.00800           0
     16479 TIP3     2635     TIP3     OH2      OT      -0.834000       15.9994           0
     16480 TIP3     2635     TIP3     H1       HT       0.417000       1.00800           0
     16481 TIP3     2635     TIP3     H2       HT       0.417000       1.00800           0
     16482 TIP3     2636     TIP3     OH2      OT      -0.834000       15.9994           0
     16483 TIP3     2636     TIP3     H1       HT       0.417000       1.00800           0
     16484 TIP3     2636     TIP3     H2       HT       0.417000       1.00800           0
     16485 TIP3     2637     TIP3     OH2      OT      -0.834000       15.9994           0
     16486 TIP3     2637     TIP3     H1       HT       0.417000       1.00800           0
     16487 TIP3     2637     TIP3     H2       HT       0.417000       1.00800           0
     16488 TIP3     2638     TIP3     OH2      OT      -0.834000       15.9994           0
     16489 TIP3     2638     TIP3     H1       HT       0.417000       1.00800           0
     16490 TIP3     2638     TIP3     H2       HT       0.417000       1.00800           0
     16491 TIP3     2639     TIP3     OH2      OT      -0.834000       15.9994           0
     16492 TIP3     2639     TIP3     H1       HT       0.417000       1.00800           0
     16493 TIP3     2639     TIP3     H2       HT       0.417000       1.00800           0
     16494 TIP3     2640     TIP3     OH2      OT      -0.834000       15.9994           0
     16495 TIP3     2640     TIP3     H1       HT       0.417000       1.00800           0
     16496 TIP3     2640     TIP3     H2       HT       0.417000       1.00800           0
     16497 TIP3     2641     TIP3     OH2      OT      -0.834000       15.9994           0
     16498 TIP3     2641     TIP3     H1       HT       0.417000       1.00800           0
     16499 TIP3     2641     TIP3     H2       HT       0.417000       1.00800           0
     16500 TIP3     2642     TIP3     OH2      OT      -0.834000       15.9994           0
     16501 TIP3     2642     TIP3     H1       HT       0.417000       1.00800           0
     16502 TIP3     2642     TIP3     H2       HT       0.417000       1.00800           0
     16503 TIP3     2643     TIP3     OH2      OT      -0.834000       15.9994           0
     16504 TIP3     2643     TIP3     H1       HT       0.417000       1.00800           0
     16505 TIP3     2643     TIP3     H2       HT       0.417000       1.00800           0
     16506 TIP3     2644     TIP3     OH2      OT      -0.834000       15.9994           0
     16507 TIP3     2644     TIP3     H1       HT       0.417000       1.00800           0
     16508 TIP3     2644     TIP3     H2       HT       0.417000       1.00800           0
     16509 TIP3     2645     TIP3     OH2      OT      -0.834000       15.9994           0
     16510 TIP3     2645     TIP3     H1       HT       0.417000       1.00800           0
     16511 TIP3     2645     TIP3     H2       HT       0.417000       1.00800           0
     16512 TIP3     2646     TIP3     OH2      OT      -0.834000       15.9994           0
     16513 TIP3     2646     TIP3     H1       HT       0.417000       1.00800           0
     16514 TIP3     2646     TIP3     H2       HT       0.417000       1.00800           0
     16515 TIP3     2647     TIP3     OH2      OT      -0.834000       15.9994           0
     16516 TIP3     2647     TIP3     H1       HT       0.417000       1.00800           0
     16517 TIP3     2647     TIP3     H2       HT       0.417000       1.00800           0
     16518 TIP3     2648     TIP3     OH2      OT      -0.834000       15.9994           0
     16519 TIP3     2648     TIP3     H1       HT       0.417000       1.00800           0
     16520 TIP3     2648     TIP3     H2       HT       0.417000       1.00800           0
     16521 TIP3     2649     TIP3     OH2      OT      -0.834000       15.9994           0
     16522 TIP3     2649     TIP3     H1       HT       0.417000       1.00800           0
     16523 TIP3     2649     TIP3     H2       HT       0.417000       1.00800           0
     16524 TIP3     2650     TIP3     OH2      OT      -0.834000       15.9994           0
     16525 TIP3     2650     TIP3     H1       HT       0.417000       1.00800           0
     16526 TIP3     2650     TIP3     H2       HT       0.417000       1.00800           0
     16527 TIP3     2651     TIP3     OH2      OT      -0.834000       15.9994           0
     16528 TIP3     2651     TIP3     H1       HT       0.417000       1.00800           0
     16529 TIP3     2651     TIP3     H2       HT       0.417000       1.00800           0
     16530 TIP3     2652     TIP3     OH2      OT      -0.834000       15.9994           0
     16531 TIP3     2652     TIP3     H1       HT       0.417000       1.00800           0
     16532 TIP3     2652     TIP3     H2       HT       0.417000       1.00800           0
     16533 TIP3     2653     TIP3     OH2      OT      -0.834000       15.9994           0
     16534 TIP3     2653     TIP3     H1       HT       0.417000       1.00800           0
     16535 TIP3     2653     TIP3     H2       HT       0.417000       1.00800           0
     16536 TIP3     2654     TIP3     OH2      OT      -0.834000       15.9994           0
     16537 TIP3     2654     TIP3     H1       HT       0.417000       1.00800           0
     16538 TIP3     2654     TIP3     H2       HT       0.417000       1.00800           0
     16539 TIP3     2655     TIP3     OH2      OT      -0.834000       15.9994           0
     16540 TIP3     2655     TIP3     H1       HT       0.417000       1.00800           0
     16541 TIP3     2655     TIP3     H2       HT       0.417000       1.00800           0
     16542 TIP3     2656     TIP3     OH2      OT      -0.834000       15.9994           0
     16543 TIP3     2656     TIP3     H1       HT       0.417000       1.00800           0
     16544 TIP3     2656     TIP3     H2       HT       0.417000       1.00800           0
     16545 TIP3     2657     TIP3     OH2      OT      -0.834000       15.9994           0
     16546 TIP3     2657     TIP3     H1       HT       0.417000       1.00800           0
     16547 TIP3     2657     TIP3     H2       HT       0.417000       1.00800           0
     16548 TIP3     2658     TIP3     OH2      OT      -0.834000       15.9994           0
     16549 TIP3     2658     TIP3     H1       HT       0.417000       1.00800           0
     16550 TIP3     2658     TIP3     H2       HT       0.417000       1.00800           0
     16551 TIP3     2659     TIP3     OH2      OT      -0.834000       15.9994           0
     16552 TIP3     2659     TIP3     H1       HT       0.417000       1.00800           0
     16553 TIP3     2659     TIP3     H2       HT       0.417000       1.00800           0
     16554 TIP3     2660     TIP3     OH2      OT      -0.834000       15.9994           0
     16555 TIP3     2660     TIP3     H1       HT       0.417000       1.00800           0
     16556 TIP3     2660     TIP3     H2       HT       0.417000       1.00800           0
     16557 TIP3     2661     TIP3     OH2      OT      -0.834000       15.9994           0
     16558 TIP3     2661     TIP3     H1       HT       0.417000       1.00800           0
     16559 TIP3     2661     TIP3     H2       HT       0.417000       1.00800           0
     16560 TIP3     2662     TIP3     OH2      OT      -0.834000       15.9994           0
     16561 TIP3     2662     TIP3     H1       HT       0.417000       1.00800           0
     16562 TIP3     2662     TIP3     H2       HT       0.417000       1.00800           0
     16563 TIP3     2663     TIP3     OH2      OT      -0.834000       15.9994           0
     16564 TIP3     2663     TIP3     H1       HT       0.417000       1.00800           0
     16565 TIP3     2663     TIP3     H2       HT       0.417000       1.00800           0
     16566 TIP3     2664     TIP3     OH2      OT      -0.834000       15.9994           0
     16567 TIP3     2664     TIP3     H1       HT       0.417000       1.00800           0
     16568 TIP3     2664     TIP3     H2       HT       0.417000       1.00800           0
     16569 TIP3     2665     TIP3     OH2      OT      -0.834000       15.9994           0
     16570 TIP3     2665     TIP3     H1       HT       0.417000       1.00800           0
     16571 TIP3     2665     TIP3     H2       HT       0.417000       1.00800           0
     16572 TIP3     2666     TIP3     OH2      OT      -0.834000       15.9994           0
     16573 TIP3     2666     TIP3     H1       HT       0.417000       1.00800           0
     16574 TIP3     2666     TIP3     H2       HT       0.417000       1.00800           0
     16575 TIP3     2667     TIP3     OH2      OT      -0.834000       15.9994           0
     16576 TIP3     2667     TIP3     H1       HT       0.417000       1.00800           0
     16577 TIP3     2667     TIP3     H2       HT       0.417000       1.00800           0
     16578 TIP3     2668     TIP3     OH2      OT      -0.834000       15.9994           0
     16579 TIP3     2668     TIP3     H1       HT       0.417000       1.00800           0
     16580 TIP3     2668     TIP3     H2       HT       0.417000       1.00800           0
     16581 TIP3     2669     TIP3     OH2      OT      -0.834000       15.9994           0
     16582 TIP3     2669     TIP3     H1       HT       0.417000       1.00800           0
     16583 TIP3     2669     TIP3     H2       HT       0.417000       1.00800           0
     16584 TIP3     2670     TIP3     OH2      OT      -0.834000       15.9994           0
     16585 TIP3     2670     TIP3     H1       HT       0.417000       1.00800           0
     16586 TIP3     2670     TIP3     H2       HT       0.417000       1.00800           0
     16587 TIP3     2671     TIP3     OH2      OT      -0.834000       15.9994           0
     16588 TIP3     2671     TIP3     H1       HT       0.417000       1.00800           0
     16589 TIP3     2671     TIP3     H2       HT       0.417000       1.00800           0
     16590 TIP3     2672     TIP3     OH2      OT      -0.834000       15.9994           0
     16591 TIP3     2672     TIP3     H1       HT       0.417000       1.00800           0
     16592 TIP3     2672     TIP3     H2       HT       0.417000       1.00800           0
     16593 TIP3     2673     TIP3     OH2      OT      -0.834000       15.9994           0
     16594 TIP3     2673     TIP3     H1       HT       0.417000       1.00800           0
     16595 TIP3     2673     TIP3     H2       HT       0.417000       1.00800           0
     16596 TIP3     2674     TIP3     OH2      OT      -0.834000       15.9994           0
     16597 TIP3     2674     TIP3     H1       HT       0.417000       1.00800           0
     16598 TIP3     2674     TIP3     H2       HT       0.417000       1.00800           0
     16599 TIP3     2675     TIP3     OH2      OT      -0.834000       15.9994           0
     16600 TIP3     2675     TIP3     H1       HT       0.417000       1.00800           0
     16601 TIP3     2675     TIP3     H2       HT       0.417000       1.00800           0
     16602 TIP3     2676     TIP3     OH2      OT      -0.834000       15.9994           0
     16603 TIP3     2676     TIP3     H1       HT       0.417000       1.00800           0
     16604 TIP3     2676     TIP3     H2       HT       0.417000       1.00800           0
     16605 TIP3     2677     TIP3     OH2      OT      -0.834000       15.9994           0
     16606 TIP3     2677     TIP3     H1       HT       0.417000       1.00800           0
     16607 TIP3     2677     TIP3     H2       HT       0.417000       1.00800           0
     16608 TIP3     2678     TIP3     OH2      OT      -0.834000       15.9994           0
     16609 TIP3     2678     TIP3     H1       HT       0.417000       1.00800           0
     16610 TIP3     2678     TIP3     H2       HT       0.417000       1.00800           0
     16611 TIP3     2679     TIP3     OH2      OT      -0.834000       15.9994           0
     16612 TIP3     2679     TIP3     H1       HT       0.417000       1.00800           0
     16613 TIP3     2679     TIP3     H2       HT       0.417000       1.00800           0
     16614 TIP3     2680     TIP3     OH2      OT      -0.834000       15.9994           0
     16615 TIP3     2680     TIP3     H1       HT       0.417000       1.00800           0
     16616 TIP3     2680     TIP3     H2       HT       0.417000       1.00800           0
     16617 TIP3     2681     TIP3     OH2      OT      -0.834000       15.9994           0
     16618 TIP3     2681     TIP3     H1       HT       0.417000       1.00800           0
     16619 TIP3     2681     TIP3     H2       HT       0.417000       1.00800           0
     16620 TIP3     2682     TIP3     OH2      OT      -0.834000       15.9994           0
     16621 TIP3     2682     TIP3     H1       HT       0.417000       1.00800           0
     16622 TIP3     2682     TIP3     H2       HT       0.417000       1.00800           0
     16623 TIP3     2683     TIP3     OH2      OT      -0.834000       15.9994           0
     16624 TIP3     2683     TIP3     H1       HT       0.417000       1.00800           0
     16625 TIP3     2683     TIP3     H2       HT       0.417000       1.00800           0
     16626 TIP3     2684     TIP3     OH2      OT      -0.834000       15.9994           0
     16627 TIP3     2684     TIP3     H1       HT       0.417000       1.00800           0
     16628 TIP3     2684     TIP3     H2       HT       0.417000       1.00800           0
     16629 TIP3     2685     TIP3     OH2      OT      -0.834000       15.9994           0
     16630 TIP3     2685     TIP3     H1       HT       0.417000       1.00800           0
     16631 TIP3     2685     TIP3     H2       HT       0.417000       1.00800           0
     16632 TIP3     2686     TIP3     OH2      OT      -0.834000       15.9994           0
     16633 TIP3     2686     TIP3     H1       HT       0.417000       1.00800           0
     16634 TIP3     2686     TIP3     H2       HT       0.417000       1.00800           0
     16635 TIP3     2687     TIP3     OH2      OT      -0.834000       15.9994           0
     16636 TIP3     2687     TIP3     H1       HT       0.417000       1.00800           0
     16637 TIP3     2687     TIP3     H2       HT       0.417000       1.00800           0
     16638 TIP3     2688     TIP3     OH2      OT      -0.834000       15.9994           0
     16639 TIP3     2688     TIP3     H1       HT       0.417000       1.00800           0
     16640 TIP3     2688     TIP3     H2       HT       0.417000       1.00800           0
     16641 TIP3     2689     TIP3     OH2      OT      -0.834000       15.9994           0
     16642 TIP3     2689     TIP3     H1       HT       0.417000       1.00800           0
     16643 TIP3     2689     TIP3     H2       HT       0.417000       1.00800           0
     16644 TIP3     2690     TIP3     OH2      OT      -0.834000       15.9994           0
     16645 TIP3     2690     TIP3     H1       HT       0.417000       1.00800           0
     16646 TIP3     2690     TIP3     H2       HT       0.417000       1.00800           0
     16647 TIP3     2691     TIP3     OH2      OT      -0.834000       15.9994           0
     16648 TIP3     2691     TIP3     H1       HT       0.417000       1.00800           0
     16649 TIP3     2691     TIP3     H2       HT       0.417000       1.00800           0
     16650 TIP3     2692     TIP3     OH2      OT      -0.834000       15.9994           0
     16651 TIP3     2692     TIP3     H1       HT       0.417000       1.00800           0
     16652 TIP3     2692     TIP3     H2       HT       0.417000       1.00800           0
     16653 TIP3     2693     TIP3     OH2      OT      -0.834000       15.9994           0
     16654 TIP3     2693     TIP3     H1       HT       0.417000       1.00800           0
     16655 TIP3     2693     TIP3     H2       HT       0.417000       1.00800           0
     16656 TIP3     2694     TIP3     OH2      OT      -0.834000       15.9994           0
     16657 TIP3     2694     TIP3     H1       HT       0.417000       1.00800           0
     16658 TIP3     2694     TIP3     H2       HT       0.417000       1.00800           0
     16659 TIP3     2695     TIP3     OH2      OT      -0.834000       15.9994           0
     16660 TIP3     2695     TIP3     H1       HT       0.417000       1.00800           0
     16661 TIP3     2695     TIP3     H2       HT       0.417000       1.00800           0
     16662 TIP3     2696     TIP3     OH2      OT      -0.834000       15.9994           0
     16663 TIP3     2696     TIP3     H1       HT       0.417000       1.00800           0
     16664 TIP3     2696     TIP3     H2       HT       0.417000       1.00800           0
     16665 TIP3     2697     TIP3     OH2      OT      -0.834000       15.9994           0
     16666 TIP3     2697     TIP3     H1       HT       0.417000       1.00800           0
     16667 TIP3     2697     TIP3     H2       HT       0.417000       1.00800           0
     16668 TIP3     2698     TIP3     OH2      OT      -0.834000       15.9994           0
     16669 TIP3     2698     TIP3     H1       HT       0.417000       1.00800           0
     16670 TIP3     2698     TIP3     H2       HT       0.417000       1.00800           0
     16671 TIP3     2699     TIP3     OH2      OT      -0.834000       15.9994           0
     16672 TIP3     2699     TIP3     H1       HT       0.417000       1.00800           0
     16673 TIP3     2699     TIP3     H2       HT       0.417000       1.00800           0
     16674 TIP3     2700     TIP3     OH2      OT      -0.834000       15.9994           0
     16675 TIP3     2700     TIP3     H1       HT       0.417000       1.00800           0
     16676 TIP3     2700     TIP3     H2       HT       0.417000       1.00800           0
     16677 TIP3     2701     TIP3     OH2      OT      -0.834000       15.9994           0
     16678 TIP3     2701     TIP3     H1       HT       0.417000       1.00800           0
     16679 TIP3     2701     TIP3     H2       HT       0.417000       1.00800           0
     16680 TIP3     2702     TIP3     OH2      OT      -0.834000       15.9994           0
     16681 TIP3     2702     TIP3     H1       HT       0.417000       1.00800           0
     16682 TIP3     2702     TIP3     H2       HT       0.417000       1.00800           0
     16683 TIP3     2703     TIP3     OH2      OT      -0.834000       15.9994           0
     16684 TIP3     2703     TIP3     H1       HT       0.417000       1.00800           0
     16685 TIP3     2703     TIP3     H2       HT       0.417000       1.00800           0
     16686 TIP3     2704     TIP3     OH2      OT      -0.834000       15.9994           0
     16687 TIP3     2704     TIP3     H1       HT       0.417000       1.00800           0
     16688 TIP3     2704     TIP3     H2       HT       0.417000       1.00800           0
     16689 TIP3     2705     TIP3     OH2      OT      -0.834000       15.9994           0
     16690 TIP3     2705     TIP3     H1       HT       0.417000       1.00800           0
     16691 TIP3     2705     TIP3     H2       HT       0.417000       1.00800           0
     16692 TIP3     2706     TIP3     OH2      OT      -0.834000       15.9994           0
     16693 TIP3     2706     TIP3     H1       HT       0.417000       1.00800           0
     16694 TIP3     2706     TIP3     H2       HT       0.417000       1.00800           0
     16695 TIP3     2707     TIP3     OH2      OT      -0.834000       15.9994           0
     16696 TIP3     2707     TIP3     H1       HT       0.417000       1.00800           0
     16697 TIP3     2707     TIP3     H2       HT       0.417000       1.00800           0
     16698 TIP3     2708     TIP3     OH2      OT      -0.834000       15.9994           0
     16699 TIP3     2708     TIP3     H1       HT       0.417000       1.00800           0
     16700 TIP3     2708     TIP3     H2       HT       0.417000       1.00800           0
     16701 TIP3     2709     TIP3     OH2      OT      -0.834000       15.9994           0
     16702 TIP3     2709     TIP3     H1       HT       0.417000       1.00800           0
     16703 TIP3     2709     TIP3     H2       HT       0.417000       1.00800           0
     16704 TIP3     2710     TIP3     OH2      OT      -0.834000       15.9994           0
     16705 TIP3     2710     TIP3     H1       HT       0.417000       1.00800           0
     16706 TIP3     2710     TIP3     H2       HT       0.417000       1.00800           0
     16707 TIP3     2711     TIP3     OH2      OT      -0.834000       15.9994           0
     16708 TIP3     2711     TIP3     H1       HT       0.417000       1.00800           0
     16709 TIP3     2711     TIP3     H2       HT       0.417000       1.00800           0
     16710 TIP3     2712     TIP3     OH2      OT      -0.834000       15.9994           0
     16711 TIP3     2712     TIP3     H1       HT       0.417000       1.00800           0
     16712 TIP3     2712     TIP3     H2       HT       0.417000       1.00800           0
     16713 TIP3     2713     TIP3     OH2      OT      -0.834000       15.9994           0
     16714 TIP3     2713     TIP3     H1       HT       0.417000       1.00800           0
     16715 TIP3     2713     TIP3     H2       HT       0.417000       1.00800           0
     16716 TIP3     2714     TIP3     OH2      OT      -0.834000       15.9994           0
     16717 TIP3     2714     TIP3     H1       HT       0.417000       1.00800           0
     16718 TIP3     2714     TIP3     H2       HT       0.417000       1.00800           0
     16719 TIP3     2715     TIP3     OH2      OT      -0.834000       15.9994           0
     16720 TIP3     2715     TIP3     H1       HT       0.417000       1.00800           0
     16721 TIP3     2715     TIP3     H2       HT       0.417000       1.00800           0
     16722 TIP3     2716     TIP3     OH2      OT      -0.834000       15.9994           0
     16723 TIP3     2716     TIP3     H1       HT       0.417000       1.00800           0
     16724 TIP3     2716     TIP3     H2       HT       0.417000       1.00800           0
     16725 TIP3     2717     TIP3     OH2      OT      -0.834000       15.9994           0
     16726 TIP3     2717     TIP3     H1       HT       0.417000       1.00800           0
     16727 TIP3     2717     TIP3     H2       HT       0.417000       1.00800           0
     16728 TIP3     2718     TIP3     OH2      OT      -0.834000       15.9994           0
     16729 TIP3     2718     TIP3     H1       HT       0.417000       1.00800           0
     16730 TIP3     2718     TIP3     H2       HT       0.417000       1.00800           0
     16731 TIP3     2719     TIP3     OH2      OT      -0.834000       15.9994           0
     16732 TIP3     2719     TIP3     H1       HT       0.417000       1.00800           0
     16733 TIP3     2719     TIP3     H2       HT       0.417000       1.00800           0
     16734 TIP3     2720     TIP3     OH2      OT      -0.834000       15.9994           0
     16735 TIP3     2720     TIP3     H1       HT       0.417000       1.00800           0
     16736 TIP3     2720     TIP3     H2       HT       0.417000       1.00800           0
     16737 TIP3     2721     TIP3     OH2      OT      -0.834000       15.9994           0
     16738 TIP3     2721     TIP3     H1       HT       0.417000       1.00800           0
     16739 TIP3     2721     TIP3     H2       HT       0.417000       1.00800           0
     16740 TIP3     2722     TIP3     OH2      OT      -0.834000       15.9994           0
     16741 TIP3     2722     TIP3     H1       HT       0.417000       1.00800           0
     16742 TIP3     2722     TIP3     H2       HT       0.417000       1.00800           0
     16743 TIP3     2723     TIP3     OH2      OT      -0.834000       15.9994           0
     16744 TIP3     2723     TIP3     H1       HT       0.417000       1.00800           0
     16745 TIP3     2723     TIP3     H2       HT       0.417000       1.00800           0
     16746 TIP3     2724     TIP3     OH2      OT      -0.834000       15.9994           0
     16747 TIP3     2724     TIP3     H1       HT       0.417000       1.00800           0
     16748 TIP3     2724     TIP3     H2       HT       0.417000       1.00800           0
     16749 TIP3     2725     TIP3     OH2      OT      -0.834000       15.9994           0
     16750 TIP3     2725     TIP3     H1       HT       0.417000       1.00800           0
     16751 TIP3     2725     TIP3     H2       HT       0.417000       1.00800           0
     16752 TIP3     2726     TIP3     OH2      OT      -0.834000       15.9994           0
     16753 TIP3     2726     TIP3     H1       HT       0.417000       1.00800           0
     16754 TIP3     2726     TIP3     H2       HT       0.417000       1.00800           0
     16755 TIP3     2727     TIP3     OH2      OT      -0.834000       15.9994           0
     16756 TIP3     2727     TIP3     H1       HT       0.417000       1.00800           0
     16757 TIP3     2727     TIP3     H2       HT       0.417000       1.00800           0
     16758 TIP3     2728     TIP3     OH2      OT      -0.834000       15.9994           0
     16759 TIP3     2728     TIP3     H1       HT       0.417000       1.00800           0
     16760 TIP3     2728     TIP3     H2       HT       0.417000       1.00800           0
     16761 TIP3     2729     TIP3     OH2      OT      -0.834000       15.9994           0
     16762 TIP3     2729     TIP3     H1       HT       0.417000       1.00800           0
     16763 TIP3     2729     TIP3     H2       HT       0.417000       1.00800           0
     16764 TIP3     2730     TIP3     OH2      OT      -0.834000       15.9994           0
     16765 TIP3     2730     TIP3     H1       HT       0.417000       1.00800           0
     16766 TIP3     2730     TIP3     H2       HT       0.417000       1.00800           0
     16767 TIP3     2731     TIP3     OH2      OT      -0.834000       15.9994           0
     16768 TIP3     2731     TIP3     H1       HT       0.417000       1.00800           0
     16769 TIP3     2731     TIP3     H2       HT       0.417000       1.00800           0
     16770 TIP3     2732     TIP3     OH2      OT      -0.834000       15.9994           0
     16771 TIP3     2732     TIP3     H1       HT       0.417000       1.00800           0
     16772 TIP3     2732     TIP3     H2       HT       0.417000       1.00800           0
     16773 TIP3     2733     TIP3     OH2      OT      -0.834000       15.9994           0
     16774 TIP3     2733     TIP3     H1       HT       0.417000       1.00800           0
     16775 TIP3     2733     TIP3     H2       HT       0.417000       1.00800           0
     16776 TIP3     2734     TIP3     OH2      OT      -0.834000       15.9994           0
     16777 TIP3     2734     TIP3     H1       HT       0.417000       1.00800           0
     16778 TIP3     2734     TIP3     H2       HT       0.417000       1.00800           0
     16779 TIP3     2735     TIP3     OH2      OT      -0.834000       15.9994           0
     16780 TIP3     2735     TIP3     H1       HT       0.417000       1.00800           0
     16781 TIP3     2735     TIP3     H2       HT       0.417000       1.00800           0
     16782 TIP3     2736     TIP3     OH2      OT      -0.834000       15.9994           0
     16783 TIP3     2736     TIP3     H1       HT       0.417000       1.00800           0
     16784 TIP3     2736     TIP3     H2       HT       0.417000       1.00800           0
     16785 TIP3     2737     TIP3     OH2      OT      -0.834000       15.9994           0
     16786 TIP3     2737     TIP3     H1       HT       0.417000       1.00800           0
     16787 TIP3     2737     TIP3     H2       HT       0.417000       1.00800           0
     16788 TIP3     2738     TIP3     OH2      OT      -0.834000       15.9994           0
     16789 TIP3     2738     TIP3     H1       HT       0.417000       1.00800           0
     16790 TIP3     2738     TIP3     H2       HT       0.417000       1.00800           0
     16791 TIP3     2739     TIP3     OH2      OT      -0.834000       15.9994           0
     16792 TIP3     2739     TIP3     H1       HT       0.417000       1.00800           0
     16793 TIP3     2739     TIP3     H2       HT       0.417000       1.00800           0
     16794 TIP3     2740     TIP3     OH2      OT      -0.834000       15.9994           0
     16795 TIP3     2740     TIP3     H1       HT       0.417000       1.00800           0
     16796 TIP3     2740     TIP3     H2       HT       0.417000       1.00800           0
     16797 TIP3     2741     TIP3     OH2      OT      -0.834000       15.9994           0
     16798 TIP3     2741     TIP3     H1       HT       0.417000       1.00800           0
     16799 TIP3     2741     TIP3     H2       HT       0.417000       1.00800           0
     16800 TIP3     2742     TIP3     OH2      OT      -0.834000       15.9994           0
     16801 TIP3     2742     TIP3     H1       HT       0.417000       1.00800           0
     16802 TIP3     2742     TIP3     H2       HT       0.417000       1.00800           0
     16803 TIP3     2743     TIP3     OH2      OT      -0.834000       15.9994           0
     16804 TIP3     2743     TIP3     H1       HT       0.417000       1.00800           0
     16805 TIP3     2743     TIP3     H2       HT       0.417000       1.00800           0
     16806 TIP3     2744     TIP3     OH2      OT      -0.834000       15.9994           0
     16807 TIP3     2744     TIP3     H1       HT       0.417000       1.00800           0
     16808 TIP3     2744     TIP3     H2       HT       0.417000       1.00800           0
     16809 TIP3     2745     TIP3     OH2      OT      -0.834000       15.9994           0
     16810 TIP3     2745     TIP3     H1       HT       0.417000       1.00800           0
     16811 TIP3     2745     TIP3     H2       HT       0.417000       1.00800           0
     16812 TIP3     2746     TIP3     OH2      OT      -0.834000       15.9994           0
     16813 TIP3     2746     TIP3     H1       HT       0.417000       1.00800           0
     16814 TIP3     2746     TIP3     H2       HT       0.417000       1.00800           0
     16815 TIP3     2747     TIP3     OH2      OT      -0.834000       15.9994           0
     16816 TIP3     2747     TIP3     H1       HT       0.417000       1.00800           0
     16817 TIP3     2747     TIP3     H2       HT       0.417000       1.00800           0
     16818 TIP3     2748     TIP3     OH2      OT      -0.834000       15.9994           0
     16819 TIP3     2748     TIP3     H1       HT       0.417000       1.00800           0
     16820 TIP3     2748     TIP3     H2       HT       0.417000       1.00800           0
     16821 TIP3     2749     TIP3     OH2      OT      -0.834000       15.9994           0
     16822 TIP3     2749     TIP3     H1       HT       0.417000       1.00800           0
     16823 TIP3     2749     TIP3     H2       HT       0.417000       1.00800           0
     16824 TIP3     2750     TIP3     OH2      OT      -0.834000       15.9994           0
     16825 TIP3     2750     TIP3     H1       HT       0.417000       1.00800           0
     16826 TIP3     2750     TIP3     H2       HT       0.417000       1.00800           0
     16827 TIP3     2751     TIP3     OH2      OT      -0.834000       15.9994           0
     16828 TIP3     2751     TIP3     H1       HT       0.417000       1.00800           0
     16829 TIP3     2751     TIP3     H2       HT       0.417000       1.00800           0
     16830 TIP3     2752     TIP3     OH2      OT      -0.834000       15.9994           0
     16831 TIP3     2752     TIP3     H1       HT       0.417000       1.00800           0
     16832 TIP3     2752     TIP3     H2       HT       0.417000       1.00800           0
     16833 TIP3     2753     TIP3     OH2      OT      -0.834000       15.9994           0
     16834 TIP3     2753     TIP3     H1       HT       0.417000       1.00800           0
     16835 TIP3     2753     TIP3     H2       HT       0.417000       1.00800           0
     16836 TIP3     2754     TIP3     OH2      OT      -0.834000       15.9994           0
     16837 TIP3     2754     TIP3     H1       HT       0.417000       1.00800           0
     16838 TIP3     2754     TIP3     H2       HT       0.417000       1.00800           0
     16839 TIP3     2755     TIP3     OH2      OT      -0.834000       15.9994           0
     16840 TIP3     2755     TIP3     H1       HT       0.417000       1.00800           0
     16841 TIP3     2755     TIP3     H2       HT       0.417000       1.00800           0
     16842 TIP3     2756     TIP3     OH2      OT      -0.834000       15.9994           0
     16843 TIP3     2756     TIP3     H1       HT       0.417000       1.00800           0
     16844 TIP3     2756     TIP3     H2       HT       0.417000       1.00800           0
     16845 TIP3     2757     TIP3     OH2      OT      -0.834000       15.9994           0
     16846 TIP3     2757     TIP3     H1       HT       0.417000       1.00800           0
     16847 TIP3     2757     TIP3     H2       HT       0.417000       1.00800           0
     16848 TIP3     2758     TIP3     OH2      OT      -0.834000       15.9994           0
     16849 TIP3     2758     TIP3     H1       HT       0.417000       1.00800           0
     16850 TIP3     2758     TIP3     H2       HT       0.417000       1.00800           0
     16851 TIP3     2759     TIP3     OH2      OT      -0.834000       15.9994           0
     16852 TIP3     2759     TIP3     H1       HT       0.417000       1.00800           0
     16853 TIP3     2759     TIP3     H2       HT       0.417000       1.00800           0
     16854 TIP3     2760     TIP3     OH2      OT      -0.834000       15.9994           0
     16855 TIP3     2760     TIP3     H1       HT       0.417000       1.00800           0
     16856 TIP3     2760     TIP3     H2       HT       0.417000       1.00800           0
     16857 TIP3     2761     TIP3     OH2      OT      -0.834000       15.9994           0
     16858 TIP3     2761     TIP3     H1       HT       0.417000       1.00800           0
     16859 TIP3     2761     TIP3     H2       HT       0.417000       1.00800           0
     16860 TIP3     2762     TIP3     OH2      OT      -0.834000       15.9994           0
     16861 TIP3     2762     TIP3     H1       HT       0.417000       1.00800           0
     16862 TIP3     2762     TIP3     H2       HT       0.417000       1.00800           0
     16863 TIP3     2763     TIP3     OH2      OT      -0.834000       15.9994           0
     16864 TIP3     2763     TIP3     H1       HT       0.417000       1.00800           0
     16865 TIP3     2763     TIP3     H2       HT       0.417000       1.00800           0
     16866 TIP3     2764     TIP3     OH2      OT      -0.834000       15.9994           0
     16867 TIP3     2764     TIP3     H1       HT       0.417000       1.00800           0
     16868 TIP3     2764     TIP3     H2       HT       0.417000       1.00800           0
     16869 TIP3     2765     TIP3     OH2      OT      -0.834000       15.9994           0
     16870 TIP3     2765     TIP3     H1       HT       0.417000       1.00800           0
     16871 TIP3     2765     TIP3     H2       HT       0.417000       1.00800           0
     16872 TIP3     2766     TIP3     OH2      OT      -0.834000       15.9994           0
     16873 TIP3     2766     TIP3     H1       HT       0.417000       1.00800           0
     16874 TIP3     2766     TIP3     H2       HT       0.417000       1.00800           0
     16875 TIP3     2767     TIP3     OH2      OT      -0.834000       15.9994           0
     16876 TIP3     2767     TIP3     H1       HT       0.417000       1.00800           0
     16877 TIP3     2767     TIP3     H2       HT       0.417000       1.00800           0
     16878 TIP3     2768     TIP3     OH2      OT      -0.834000       15.9994           0
     16879 TIP3     2768     TIP3     H1       HT       0.417000       1.00800           0
     16880 TIP3     2768     TIP3     H2       HT       0.417000       1.00800           0
     16881 TIP3     2769     TIP3     OH2      OT      -0.834000       15.9994           0
     16882 TIP3     2769     TIP3     H1       HT       0.417000       1.00800           0
     16883 TIP3     2769     TIP3     H2       HT       0.417000       1.00800           0
     16884 TIP3     2770     TIP3     OH2      OT      -0.834000       15.9994           0
     16885 TIP3     2770     TIP3     H1       HT       0.417000       1.00800           0
     16886 TIP3     2770     TIP3     H2       HT       0.417000       1.00800           0
     16887 TIP3     2771     TIP3     OH2      OT      -0.834000       15.9994           0
     16888 TIP3     2771     TIP3     H1       HT       0.417000       1.00800           0
     16889 TIP3     2771     TIP3     H2       HT       0.417000       1.00800           0
     16890 TIP3     2772     TIP3     OH2      OT      -0.834000       15.9994           0
     16891 TIP3     2772     TIP3     H1       HT       0.417000       1.00800           0
     16892 TIP3     2772     TIP3     H2       HT       0.417000       1.00800           0
     16893 TIP3     2773     TIP3     OH2      OT      -0.834000       15.9994           0
     16894 TIP3     2773     TIP3     H1       HT       0.417000       1.00800           0
     16895 TIP3     2773     TIP3     H2       HT       0.417000       1.00800           0
     16896 TIP3     2774     TIP3     OH2      OT      -0.834000       15.9994           0
     16897 TIP3     2774     TIP3     H1       HT       0.417000       1.00800           0
     16898 TIP3     2774     TIP3     H2       HT       0.417000       1.00800           0
     16899 TIP3     2775     TIP3     OH2      OT      -0.834000       15.9994           0
     16900 TIP3     2775     TIP3     H1       HT       0.417000       1.00800           0
     16901 TIP3     2775     TIP3     H2       HT       0.417000       1.00800           0
     16902 TIP3     2776     TIP3     OH2      OT      -0.834000       15.9994           0
     16903 TIP3     2776     TIP3     H1       HT       0.417000       1.00800           0
     16904 TIP3     2776     TIP3     H2       HT       0.417000       1.00800           0
     16905 TIP3     2777     TIP3     OH2      OT      -0.834000       15.9994           0
     16906 TIP3     2777     TIP3     H1       HT       0.417000       1.00800           0
     16907 TIP3     2777     TIP3     H2       HT       0.417000       1.00800           0
     16908 TIP3     2778     TIP3     OH2      OT      -0.834000       15.9994           0
     16909 TIP3     2778     TIP3     H1       HT       0.417000       1.00800           0
     16910 TIP3     2778     TIP3     H2       HT       0.417000       1.00800           0
     16911 TIP3     2779     TIP3     OH2      OT      -0.834000       15.9994           0
     16912 TIP3     2779     TIP3     H1       HT       0.417000       1.00800           0
     16913 TIP3     2779     TIP3     H2       HT       0.417000       1.00800           0
     16914 TIP3     2780     TIP3     OH2      OT      -0.834000       15.9994           0
     16915 TIP3     2780     TIP3     H1       HT       0.417000       1.00800           0
     16916 TIP3     2780     TIP3     H2       HT       0.417000       1.00800           0
     16917 TIP3     2781     TIP3     OH2      OT      -0.834000       15.9994           0
     16918 TIP3     2781     TIP3     H1       HT       0.417000       1.00800           0
     16919 TIP3     2781     TIP3     H2       HT       0.417000       1.00800           0
     16920 TIP3     2782     TIP3     OH2      OT      -0.834000       15.9994           0
     16921 TIP3     2782     TIP3     H1       HT       0.417000       1.00800           0
     16922 TIP3     2782     TIP3     H2       HT       0.417000       1.00800           0
     16923 TIP3     2783     TIP3     OH2      OT      -0.834000       15.9994           0
     16924 TIP3     2783     TIP3     H1       HT       0.417000       1.00800           0
     16925 TIP3     2783     TIP3     H2       HT       0.417000       1.00800           0
     16926 TIP3     2784     TIP3     OH2      OT      -0.834000       15.9994           0
     16927 TIP3     2784     TIP3     H1       HT       0.417000       1.00800           0
     16928 TIP3     2784     TIP3     H2       HT       0.417000       1.00800           0
     16929 TIP3     2785     TIP3     OH2      OT      -0.834000       15.9994           0
     16930 TIP3     2785     TIP3     H1       HT       0.417000       1.00800           0
     16931 TIP3     2785     TIP3     H2       HT       0.417000       1.00800           0
     16932 TIP3     2786     TIP3     OH2      OT      -0.834000       15.9994           0
     16933 TIP3     2786     TIP3     H1       HT       0.417000       1.00800           0
     16934 TIP3     2786     TIP3     H2       HT       0.417000       1.00800           0
     16935 TIP3     2787     TIP3     OH2      OT      -0.834000       15.9994           0
     16936 TIP3     2787     TIP3     H1       HT       0.417000       1.00800           0
     16937 TIP3     2787     TIP3     H2       HT       0.417000       1.00800           0
     16938 TIP3     2788     TIP3     OH2      OT      -0.834000       15.9994           0
     16939 TIP3     2788     TIP3     H1       HT       0.417000       1.00800           0
     16940 TIP3     2788     TIP3     H2       HT       0.417000       1.00800           0
     16941 TIP3     2789     TIP3     OH2      OT      -0.834000       15.9994           0
     16942 TIP3     2789     TIP3     H1       HT       0.417000       1.00800           0
     16943 TIP3     2789     TIP3     H2       HT       0.417000       1.00800           0
     16944 TIP3     2790     TIP3     OH2      OT      -0.834000       15.9994           0
     16945 TIP3     2790     TIP3     H1       HT       0.417000       1.00800           0
     16946 TIP3     2790     TIP3     H2       HT       0.417000       1.00800           0
     16947 TIP3     2791     TIP3     OH2      OT      -0.834000       15.9994           0
     16948 TIP3     2791     TIP3     H1       HT       0.417000       1.00800           0
     16949 TIP3     2791     TIP3     H2       HT       0.417000       1.00800           0
     16950 TIP3     2792     TIP3     OH2      OT      -0.834000       15.9994           0
     16951 TIP3     2792     TIP3     H1       HT       0.417000       1.00800           0
     16952 TIP3     2792     TIP3     H2       HT       0.417000       1.00800           0
     16953 TIP3     2793     TIP3     OH2      OT      -0.834000       15.9994           0
     16954 TIP3     2793     TIP3     H1       HT       0.417000       1.00800           0
     16955 TIP3     2793     TIP3     H2       HT       0.417000       1.00800           0
     16956 TIP3     2794     TIP3     OH2      OT      -0.834000       15.9994           0
     16957 TIP3     2794     TIP3     H1       HT       0.417000       1.00800           0
     16958 TIP3     2794     TIP3     H2       HT       0.417000       1.00800           0
     16959 TIP3     2795     TIP3     OH2      OT      -0.834000       15.9994           0
     16960 TIP3     2795     TIP3     H1       HT       0.417000       1.00800           0
     16961 TIP3     2795     TIP3     H2       HT       0.417000       1.00800           0
     16962 TIP3     2796     TIP3     OH2      OT      -0.834000       15.9994           0
     16963 TIP3     2796     TIP3     H1       HT       0.417000       1.00800           0
     16964 TIP3     2796     TIP3     H2       HT       0.417000       1.00800           0
     16965 TIP3     2797     TIP3     OH2      OT      -0.834000       15.9994           0
     16966 TIP3     2797     TIP3     H1       HT       0.417000       1.00800           0
     16967 TIP3     2797     TIP3     H2       HT       0.417000       1.00800           0
     16968 TIP3     2798     TIP3     OH2      OT      -0.834000       15.9994           0
     16969 TIP3     2798     TIP3     H1       HT       0.417000       1.00800           0
     16970 TIP3     2798     TIP3     H2       HT       0.417000       1.00800           0
     16971 TIP3     2799     TIP3     OH2      OT      -0.834000       15.9994           0
     16972 TIP3     2799     TIP3     H1       HT       0.417000       1.00800           0
     16973 TIP3     2799     TIP3     H2       HT       0.417000       1.00800           0
     16974 TIP3     2800     TIP3     OH2      OT      -0.834000       15.9994           0
     16975 TIP3     2800     TIP3     H1       HT       0.417000       1.00800           0
     16976 TIP3     2800     TIP3     H2       HT       0.417000       1.00800           0
     16977 TIP3     2801     TIP3     OH2      OT      -0.834000       15.9994           0
     16978 TIP3     2801     TIP3     H1       HT       0.417000       1.00800           0
     16979 TIP3     2801     TIP3     H2       HT       0.417000       1.00800           0
     16980 TIP3     2802     TIP3     OH2      OT      -0.834000       15.9994           0
     16981 TIP3     2802     TIP3     H1       HT       0.417000       1.00800           0
     16982 TIP3     2802     TIP3     H2       HT       0.417000       1.00800           0
     16983 TIP3     2803     TIP3     OH2      OT      -0.834000       15.9994           0
     16984 TIP3     2803     TIP3     H1       HT       0.417000       1.00800           0
     16985 TIP3     2803     TIP3     H2       HT       0.417000       1.00800           0
     16986 TIP3     2804     TIP3     OH2      OT      -0.834000       15.9994           0
     16987 TIP3     2804     TIP3     H1       HT       0.417000       1.00800           0
     16988 TIP3     2804     TIP3     H2       HT       0.417000       1.00800           0
     16989 TIP3     2805     TIP3     OH2      OT      -0.834000       15.9994           0
     16990 TIP3     2805     TIP3     H1       HT       0.417000       1.00800           0
     16991 TIP3     2805     TIP3     H2       HT       0.417000       1.00800           0
     16992 TIP3     2806     TIP3     OH2      OT      -0.834000       15.9994           0
     16993 TIP3     2806     TIP3     H1       HT       0.417000       1.00800           0
     16994 TIP3     2806     TIP3     H2       HT       0.417000       1.00800           0
     16995 TIP3     2807     TIP3     OH2      OT      -0.834000       15.9994           0
     16996 TIP3     2807     TIP3     H1       HT       0.417000       1.00800           0
     16997 TIP3     2807     TIP3     H2       HT       0.417000       1.00800           0
     16998 TIP3     2808     TIP3     OH2      OT      -0.834000       15.9994           0
     16999 TIP3     2808     TIP3     H1       HT       0.417000       1.00800           0
     17000 TIP3     2808     TIP3     H2       HT       0.417000       1.00800           0
     17001 TIP3     2809     TIP3     OH2      OT      -0.834000       15.9994           0
     17002 TIP3     2809     TIP3     H1       HT       0.417000       1.00800           0
     17003 TIP3     2809     TIP3     H2       HT       0.417000       1.00800           0
     17004 TIP3     2810     TIP3     OH2      OT      -0.834000       15.9994           0
     17005 TIP3     2810     TIP3     H1       HT       0.417000       1.00800           0
     17006 TIP3     2810     TIP3     H2       HT       0.417000       1.00800           0
     17007 TIP3     2811     TIP3     OH2      OT      -0.834000       15.9994           0
     17008 TIP3     2811     TIP3     H1       HT       0.417000       1.00800           0
     17009 TIP3     2811     TIP3     H2       HT       0.417000       1.00800           0
     17010 TIP3     2812     TIP3     OH2      OT      -0.834000       15.9994           0
     17011 TIP3     2812     TIP3     H1       HT       0.417000       1.00800           0
     17012 TIP3     2812     TIP3     H2       HT       0.417000       1.00800           0
     17013 TIP3     2813     TIP3     OH2      OT      -0.834000       15.9994           0
     17014 TIP3     2813     TIP3     H1       HT       0.417000       1.00800           0
     17015 TIP3     2813     TIP3     H2       HT       0.417000       1.00800           0
     17016 TIP3     2814     TIP3     OH2      OT      -0.834000       15.9994           0
     17017 TIP3     2814     TIP3     H1       HT       0.417000       1.00800           0
     17018 TIP3     2814     TIP3     H2       HT       0.417000       1.00800           0
     17019 TIP3     2815     TIP3     OH2      OT      -0.834000       15.9994           0
     17020 TIP3     2815     TIP3     H1       HT       0.417000       1.00800           0
     17021 TIP3     2815     TIP3     H2       HT       0.417000       1.00800           0
     17022 TIP3     2816     TIP3     OH2      OT      -0.834000       15.9994           0
     17023 TIP3     2816     TIP3     H1       HT       0.417000       1.00800           0
     17024 TIP3     2816     TIP3     H2       HT       0.417000       1.00800           0
     17025 TIP3     2817     TIP3     OH2      OT      -0.834000       15.9994           0
     17026 TIP3     2817     TIP3     H1       HT       0.417000       1.00800           0
     17027 TIP3     2817     TIP3     H2       HT       0.417000       1.00800           0
     17028 TIP3     2818     TIP3     OH2      OT      -0.834000       15.9994           0
     17029 TIP3     2818     TIP3     H1       HT       0.417000       1.00800           0
     17030 TIP3     2818     TIP3     H2       HT       0.417000       1.00800           0
     17031 TIP3     2819     TIP3     OH2      OT      -0.834000       15.9994           0
     17032 TIP3     2819     TIP3     H1       HT       0.417000       1.00800           0
     17033 TIP3     2819     TIP3     H2       HT       0.417000       1.00800           0
     17034 TIP3     2820     TIP3     OH2      OT      -0.834000       15.9994           0
     17035 TIP3     2820     TIP3     H1       HT       0.417000       1.00800           0
     17036 TIP3     2820     TIP3     H2       HT       0.417000       1.00800           0
     17037 TIP3     2821     TIP3     OH2      OT      -0.834000       15.9994           0
     17038 TIP3     2821     TIP3     H1       HT       0.417000       1.00800           0
     17039 TIP3     2821     TIP3     H2       HT       0.417000       1.00800           0
     17040 TIP3     2822     TIP3     OH2      OT      -0.834000       15.9994           0
     17041 TIP3     2822     TIP3     H1       HT       0.417000       1.00800           0
     17042 TIP3     2822     TIP3     H2       HT       0.417000       1.00800           0
     17043 TIP3     2823     TIP3     OH2      OT      -0.834000       15.9994           0
     17044 TIP3     2823     TIP3     H1       HT       0.417000       1.00800           0
     17045 TIP3     2823     TIP3     H2       HT       0.417000       1.00800           0
     17046 TIP3     2824     TIP3     OH2      OT      -0.834000       15.9994           0
     17047 TIP3     2824     TIP3     H1       HT       0.417000       1.00800           0
     17048 TIP3     2824     TIP3     H2       HT       0.417000       1.00800           0
     17049 TIP3     2825     TIP3     OH2      OT      -0.834000       15.9994           0
     17050 TIP3     2825     TIP3     H1       HT       0.417000       1.00800           0
     17051 TIP3     2825     TIP3     H2       HT       0.417000       1.00800           0
     17052 TIP3     2826     TIP3     OH2      OT      -0.834000       15.9994           0
     17053 TIP3     2826     TIP3     H1       HT       0.417000       1.00800           0
     17054 TIP3     2826     TIP3     H2       HT       0.417000       1.00800           0
     17055 TIP3     2827     TIP3     OH2      OT      -0.834000       15.9994           0
     17056 TIP3     2827     TIP3     H1       HT       0.417000       1.00800           0
     17057 TIP3     2827     TIP3     H2       HT       0.417000       1.00800           0
     17058 TIP3     2828     TIP3     OH2      OT      -0.834000       15.9994           0
     17059 TIP3     2828     TIP3     H1       HT       0.417000       1.00800           0
     17060 TIP3     2828     TIP3     H2       HT       0.417000       1.00800           0
     17061 TIP3     2829     TIP3     OH2      OT      -0.834000       15.9994           0
     17062 TIP3     2829     TIP3     H1       HT       0.417000       1.00800           0
     17063 TIP3     2829     TIP3     H2       HT       0.417000       1.00800           0
     17064 TIP3     2830     TIP3     OH2      OT      -0.834000       15.9994           0
     17065 TIP3     2830     TIP3     H1       HT       0.417000       1.00800           0
     17066 TIP3     2830     TIP3     H2       HT       0.417000       1.00800           0
     17067 TIP3     2831     TIP3     OH2      OT      -0.834000       15.9994           0
     17068 TIP3     2831     TIP3     H1       HT       0.417000       1.00800           0
     17069 TIP3     2831     TIP3     H2       HT       0.417000       1.00800           0
     17070 TIP3     2832     TIP3     OH2      OT      -0.834000       15.9994           0
     17071 TIP3     2832     TIP3     H1       HT       0.417000       1.00800           0
     17072 TIP3     2832     TIP3     H2       HT       0.417000       1.00800           0
     17073 TIP3     2833     TIP3     OH2      OT      -0.834000       15.9994           0
     17074 TIP3     2833     TIP3     H1       HT       0.417000       1.00800           0
     17075 TIP3     2833     TIP3     H2       HT       0.417000       1.00800           0
     17076 TIP3     2834     TIP3     OH2      OT      -0.834000       15.9994           0
     17077 TIP3     2834     TIP3     H1       HT       0.417000       1.00800           0
     17078 TIP3     2834     TIP3     H2       HT       0.417000       1.00800           0
     17079 TIP3     2835     TIP3     OH2      OT      -0.834000       15.9994           0
     17080 TIP3     2835     TIP3     H1       HT       0.417000       1.00800           0
     17081 TIP3     2835     TIP3     H2       HT       0.417000       1.00800           0
     17082 TIP3     2836     TIP3     OH2      OT      -0.834000       15.9994           0
     17083 TIP3     2836     TIP3     H1       HT       0.417000       1.00800           0
     17084 TIP3     2836     TIP3     H2       HT       0.417000       1.00800           0
     17085 TIP3     2837     TIP3     OH2      OT      -0.834000       15.9994           0
     17086 TIP3     2837     TIP3     H1       HT       0.417000       1.00800           0
     17087 TIP3     2837     TIP3     H2       HT       0.417000       1.00800           0
     17088 TIP3     2838     TIP3     OH2      OT      -0.834000       15.9994           0
     17089 TIP3     2838     TIP3     H1       HT       0.417000       1.00800           0
     17090 TIP3     2838     TIP3     H2       HT       0.417000       1.00800           0
     17091 TIP3     2839     TIP3     OH2      OT      -0.834000       15.9994           0
     17092 TIP3     2839     TIP3     H1       HT       0.417000       1.00800           0
     17093 TIP3     2839     TIP3     H2       HT       0.417000       1.00800           0
     17094 TIP3     2840     TIP3     OH2      OT      -0.834000       15.9994           0
     17095 TIP3     2840     TIP3     H1       HT       0.417000       1.00800           0
     17096 TIP3     2840     TIP3     H2       HT       0.417000       1.00800           0
     17097 TIP3     2841     TIP3     OH2      OT      -0.834000       15.9994           0
     17098 TIP3     2841     TIP3     H1       HT       0.417000       1.00800           0
     17099 TIP3     2841     TIP3     H2       HT       0.417000       1.00800           0
     17100 TIP3     2842     TIP3     OH2      OT      -0.834000       15.9994           0
     17101 TIP3     2842     TIP3     H1       HT       0.417000       1.00800           0
     17102 TIP3     2842     TIP3     H2       HT       0.417000       1.00800           0
     17103 TIP3     2843     TIP3     OH2      OT      -0.834000       15.9994           0
     17104 TIP3     2843     TIP3     H1       HT       0.417000       1.00800           0
     17105 TIP3     2843     TIP3     H2       HT       0.417000       1.00800           0
     17106 TIP3     2844     TIP3     OH2      OT      -0.834000       15.9994           0
     17107 TIP3     2844     TIP3     H1       HT       0.417000       1.00800           0
     17108 TIP3     2844     TIP3     H2       HT       0.417000       1.00800           0
     17109 TIP3     2845     TIP3     OH2      OT      -0.834000       15.9994           0
     17110 TIP3     2845     TIP3     H1       HT       0.417000       1.00800           0
     17111 TIP3     2845     TIP3     H2       HT       0.417000       1.00800           0
     17112 TIP3     2846     TIP3     OH2      OT      -0.834000       15.9994           0
     17113 TIP3     2846     TIP3     H1       HT       0.417000       1.00800           0
     17114 TIP3     2846     TIP3     H2       HT       0.417000       1.00800           0
     17115 TIP3     2847     TIP3     OH2      OT      -0.834000       15.9994           0
     17116 TIP3     2847     TIP3     H1       HT       0.417000       1.00800           0
     17117 TIP3     2847     TIP3     H2       HT       0.417000       1.00800           0
     17118 TIP3     2848     TIP3     OH2      OT      -0.834000       15.9994           0
     17119 TIP3     2848     TIP3     H1       HT       0.417000       1.00800           0
     17120 TIP3     2848     TIP3     H2       HT       0.417000       1.00800           0
     17121 TIP3     2849     TIP3     OH2      OT      -0.834000       15.9994           0
     17122 TIP3     2849     TIP3     H1       HT       0.417000       1.00800           0
     17123 TIP3     2849     TIP3     H2       HT       0.417000       1.00800           0
     17124 TIP3     2850     TIP3     OH2      OT      -0.834000       15.9994           0
     17125 TIP3     2850     TIP3     H1       HT       0.417000       1.00800           0
     17126 TIP3     2850     TIP3     H2       HT       0.417000       1.00800           0
     17127 TIP3     2851     TIP3     OH2      OT      -0.834000       15.9994           0
     17128 TIP3     2851     TIP3     H1       HT       0.417000       1.00800           0
     17129 TIP3     2851     TIP3     H2       HT       0.417000       1.00800           0
     17130 TIP3     2852     TIP3     OH2      OT      -0.834000       15.9994           0
     17131 TIP3     2852     TIP3     H1       HT       0.417000       1.00800           0
     17132 TIP3     2852     TIP3     H2       HT       0.417000       1.00800           0
     17133 TIP3     2853     TIP3     OH2      OT      -0.834000       15.9994           0
     17134 TIP3     2853     TIP3     H1       HT       0.417000       1.00800           0
     17135 TIP3     2853     TIP3     H2       HT       0.417000       1.00800           0
     17136 TIP3     2854     TIP3     OH2      OT      -0.834000       15.9994           0
     17137 TIP3     2854     TIP3     H1       HT       0.417000       1.00800           0
     17138 TIP3     2854     TIP3     H2       HT       0.417000       1.00800           0
     17139 TIP3     2855     TIP3     OH2      OT      -0.834000       15.9994           0
     17140 TIP3     2855     TIP3     H1       HT       0.417000       1.00800           0
     17141 TIP3     2855     TIP3     H2       HT       0.417000       1.00800           0
     17142 TIP3     2856     TIP3     OH2      OT      -0.834000       15.9994           0
     17143 TIP3     2856     TIP3     H1       HT       0.417000       1.00800           0
     17144 TIP3     2856     TIP3     H2       HT       0.417000       1.00800           0
     17145 TIP3     2857     TIP3     OH2      OT      -0.834000       15.9994           0
     17146 TIP3     2857     TIP3     H1       HT       0.417000       1.00800           0
     17147 TIP3     2857     TIP3     H2       HT       0.417000       1.00800           0
     17148 TIP3     2858     TIP3     OH2      OT      -0.834000       15.9994           0
     17149 TIP3     2858     TIP3     H1       HT       0.417000       1.00800           0
     17150 TIP3     2858     TIP3     H2       HT       0.417000       1.00800           0
     17151 TIP3     2859     TIP3     OH2      OT      -0.834000       15.9994           0
     17152 TIP3     2859     TIP3     H1       HT       0.417000       1.00800           0
     17153 TIP3     2859     TIP3     H2       HT       0.417000       1.00800           0
     17154 TIP3     2860     TIP3     OH2      OT      -0.834000       15.9994           0
     17155 TIP3     2860     TIP3     H1       HT       0.417000       1.00800           0
     17156 TIP3     2860     TIP3     H2       HT       0.417000       1.00800           0
     17157 TIP3     2861     TIP3     OH2      OT      -0.834000       15.9994           0
     17158 TIP3     2861     TIP3     H1       HT       0.417000       1.00800           0
     17159 TIP3     2861     TIP3     H2       HT       0.417000       1.00800           0
     17160 TIP3     2862     TIP3     OH2      OT      -0.834000       15.9994           0
     17161 TIP3     2862     TIP3     H1       HT       0.417000       1.00800           0
     17162 TIP3     2862     TIP3     H2       HT       0.417000       1.00800           0
     17163 TIP3     2863     TIP3     OH2      OT      -0.834000       15.9994           0
     17164 TIP3     2863     TIP3     H1       HT       0.417000       1.00800           0
     17165 TIP3     2863     TIP3     H2       HT       0.417000       1.00800           0
     17166 TIP3     2864     TIP3     OH2      OT      -0.834000       15.9994           0
     17167 TIP3     2864     TIP3     H1       HT       0.417000       1.00800           0
     17168 TIP3     2864     TIP3     H2       HT       0.417000       1.00800           0
     17169 TIP3     2865     TIP3     OH2      OT      -0.834000       15.9994           0
     17170 TIP3     2865     TIP3     H1       HT       0.417000       1.00800           0
     17171 TIP3     2865     TIP3     H2       HT       0.417000       1.00800           0
     17172 TIP3     2866     TIP3     OH2      OT      -0.834000       15.9994           0
     17173 TIP3     2866     TIP3     H1       HT       0.417000       1.00800           0
     17174 TIP3     2866     TIP3     H2       HT       0.417000       1.00800           0
     17175 TIP3     2867     TIP3     OH2      OT      -0.834000       15.9994           0
     17176 TIP3     2867     TIP3     H1       HT       0.417000       1.00800           0
     17177 TIP3     2867     TIP3     H2       HT       0.417000       1.00800           0
     17178 TIP3     2868     TIP3     OH2      OT      -0.834000       15.9994           0
     17179 TIP3     2868     TIP3     H1       HT       0.417000       1.00800           0
     17180 TIP3     2868     TIP3     H2       HT       0.417000       1.00800           0
     17181 TIP3     2869     TIP3     OH2      OT      -0.834000       15.9994           0
     17182 TIP3     2869     TIP3     H1       HT       0.417000       1.00800           0
     17183 TIP3     2869     TIP3     H2       HT       0.417000       1.00800           0
     17184 TIP3     2870     TIP3     OH2      OT      -0.834000       15.9994           0
     17185 TIP3     2870     TIP3     H1       HT       0.417000       1.00800           0
     17186 TIP3     2870     TIP3     H2       HT       0.417000       1.00800           0
     17187 TIP3     2871     TIP3     OH2      OT      -0.834000       15.9994           0
     17188 TIP3     2871     TIP3     H1       HT       0.417000       1.00800           0
     17189 TIP3     2871     TIP3     H2       HT       0.417000       1.00800           0
     17190 TIP3     2872     TIP3     OH2      OT      -0.834000       15.9994           0
     17191 TIP3     2872     TIP3     H1       HT       0.417000       1.00800           0
     17192 TIP3     2872     TIP3     H2       HT       0.417000       1.00800           0
     17193 TIP3     2873     TIP3     OH2      OT      -0.834000       15.9994           0
     17194 TIP3     2873     TIP3     H1       HT       0.417000       1.00800           0
     17195 TIP3     2873     TIP3     H2       HT       0.417000       1.00800           0
     17196 TIP3     2874     TIP3     OH2      OT      -0.834000       15.9994           0
     17197 TIP3     2874     TIP3     H1       HT       0.417000       1.00800           0
     17198 TIP3     2874     TIP3     H2       HT       0.417000       1.00800           0
     17199 TIP3     2875     TIP3     OH2      OT      -0.834000       15.9994           0
     17200 TIP3     2875     TIP3     H1       HT       0.417000       1.00800           0
     17201 TIP3     2875     TIP3     H2       HT       0.417000       1.00800           0
     17202 TIP3     2876     TIP3     OH2      OT      -0.834000       15.9994           0
     17203 TIP3     2876     TIP3     H1       HT       0.417000       1.00800           0
     17204 TIP3     2876     TIP3     H2       HT       0.417000       1.00800           0
     17205 TIP3     2877     TIP3     OH2      OT      -0.834000       15.9994           0
     17206 TIP3     2877     TIP3     H1       HT       0.417000       1.00800           0
     17207 TIP3     2877     TIP3     H2       HT       0.417000       1.00800           0
     17208 TIP3     2878     TIP3     OH2      OT      -0.834000       15.9994           0
     17209 TIP3     2878     TIP3     H1       HT       0.417000       1.00800           0
     17210 TIP3     2878     TIP3     H2       HT       0.417000       1.00800           0
     17211 TIP3     2879     TIP3     OH2      OT      -0.834000       15.9994           0
     17212 TIP3     2879     TIP3     H1       HT       0.417000       1.00800           0
     17213 TIP3     2879     TIP3     H2       HT       0.417000       1.00800           0
     17214 TIP3     2880     TIP3     OH2      OT      -0.834000       15.9994           0
     17215 TIP3     2880     TIP3     H1       HT       0.417000       1.00800           0
     17216 TIP3     2880     TIP3     H2       HT       0.417000       1.00800           0
     17217 TIP3     2881     TIP3     OH2      OT      -0.834000       15.9994           0
     17218 TIP3     2881     TIP3     H1       HT       0.417000       1.00800           0
     17219 TIP3     2881     TIP3     H2       HT       0.417000       1.00800           0
     17220 TIP3     2882     TIP3     OH2      OT      -0.834000       15.9994           0
     17221 TIP3     2882     TIP3     H1       HT       0.417000       1.00800           0
     17222 TIP3     2882     TIP3     H2       HT       0.417000       1.00800           0
     17223 TIP3     2883     TIP3     OH2      OT      -0.834000       15.9994           0
     17224 TIP3     2883     TIP3     H1       HT       0.417000       1.00800           0
     17225 TIP3     2883     TIP3     H2       HT       0.417000       1.00800           0
     17226 TIP3     2884     TIP3     OH2      OT      -0.834000       15.9994           0
     17227 TIP3     2884     TIP3     H1       HT       0.417000       1.00800           0
     17228 TIP3     2884     TIP3     H2       HT       0.417000       1.00800           0
     17229 TIP3     2885     TIP3     OH2      OT      -0.834000       15.9994           0
     17230 TIP3     2885     TIP3     H1       HT       0.417000       1.00800           0
     17231 TIP3     2885     TIP3     H2       HT       0.417000       1.00800           0
     17232 TIP3     2886     TIP3     OH2      OT      -0.834000       15.9994           0
     17233 TIP3     2886     TIP3     H1       HT       0.417000       1.00800           0
     17234 TIP3     2886     TIP3     H2       HT       0.417000       1.00800           0
     17235 TIP3     2887     TIP3     OH2      OT      -0.834000       15.9994           0
     17236 TIP3     2887     TIP3     H1       HT       0.417000       1.00800           0
     17237 TIP3     2887     TIP3     H2       HT       0.417000       1.00800           0
     17238 TIP3     2888     TIP3     OH2      OT      -0.834000       15.9994           0
     17239 TIP3     2888     TIP3     H1       HT       0.417000       1.00800           0
     17240 TIP3     2888     TIP3     H2       HT       0.417000       1.00800           0
     17241 TIP3     2889     TIP3     OH2      OT      -0.834000       15.9994           0
     17242 TIP3     2889     TIP3     H1       HT       0.417000       1.00800           0
     17243 TIP3     2889     TIP3     H2       HT       0.417000       1.00800           0
     17244 TIP3     2890     TIP3     OH2      OT      -0.834000       15.9994           0
     17245 TIP3     2890     TIP3     H1       HT       0.417000       1.00800           0
     17246 TIP3     2890     TIP3     H2       HT       0.417000       1.00800           0
     17247 TIP3     2891     TIP3     OH2      OT      -0.834000       15.9994           0
     17248 TIP3     2891     TIP3     H1       HT       0.417000       1.00800           0
     17249 TIP3     2891     TIP3     H2       HT       0.417000       1.00800           0
     17250 TIP3     2892     TIP3     OH2      OT      -0.834000       15.9994           0
     17251 TIP3     2892     TIP3     H1       HT       0.417000       1.00800           0
     17252 TIP3     2892     TIP3     H2       HT       0.417000       1.00800           0
     17253 TIP3     2893     TIP3     OH2      OT      -0.834000       15.9994           0
     17254 TIP3     2893     TIP3     H1       HT       0.417000       1.00800           0
     17255 TIP3     2893     TIP3     H2       HT       0.417000       1.00800           0
     17256 TIP3     2894     TIP3     OH2      OT      -0.834000       15.9994           0
     17257 TIP3     2894     TIP3     H1       HT       0.417000       1.00800           0
     17258 TIP3     2894     TIP3     H2       HT       0.417000       1.00800           0
     17259 TIP3     2895     TIP3     OH2      OT      -0.834000       15.9994           0
     17260 TIP3     2895     TIP3     H1       HT       0.417000       1.00800           0
     17261 TIP3     2895     TIP3     H2       HT       0.417000       1.00800           0
     17262 TIP3     2896     TIP3     OH2      OT      -0.834000       15.9994           0
     17263 TIP3     2896     TIP3     H1       HT       0.417000       1.00800           0
     17264 TIP3     2896     TIP3     H2       HT       0.417000       1.00800           0
     17265 TIP3     2897     TIP3     OH2      OT      -0.834000       15.9994           0
     17266 TIP3     2897     TIP3     H1       HT       0.417000       1.00800           0
     17267 TIP3     2897     TIP3     H2       HT       0.417000       1.00800           0
     17268 TIP3     2898     TIP3     OH2      OT      -0.834000       15.9994           0
     17269 TIP3     2898     TIP3     H1       HT       0.417000       1.00800           0
     17270 TIP3     2898     TIP3     H2       HT       0.417000       1.00800           0
     17271 TIP3     2899     TIP3     OH2      OT      -0.834000       15.9994           0
     17272 TIP3     2899     TIP3     H1       HT       0.417000       1.00800           0
     17273 TIP3     2899     TIP3     H2       HT       0.417000       1.00800           0
     17274 TIP3     2900     TIP3     OH2      OT      -0.834000       15.9994           0
     17275 TIP3     2900     TIP3     H1       HT       0.417000       1.00800           0
     17276 TIP3     2900     TIP3     H2       HT       0.417000       1.00800           0
     17277 TIP3     2901     TIP3     OH2      OT      -0.834000       15.9994           0
     17278 TIP3     2901     TIP3     H1       HT       0.417000       1.00800           0
     17279 TIP3     2901     TIP3     H2       HT       0.417000       1.00800           0
     17280 TIP3     2902     TIP3     OH2      OT      -0.834000       15.9994           0
     17281 TIP3     2902     TIP3     H1       HT       0.417000       1.00800           0
     17282 TIP3     2902     TIP3     H2       HT       0.417000       1.00800           0
     17283 TIP3     2903     TIP3     OH2      OT      -0.834000       15.9994           0
     17284 TIP3     2903     TIP3     H1       HT       0.417000       1.00800           0
     17285 TIP3     2903     TIP3     H2       HT       0.417000       1.00800           0
     17286 TIP3     2904     TIP3     OH2      OT      -0.834000       15.9994           0
     17287 TIP3     2904     TIP3     H1       HT       0.417000       1.00800           0
     17288 TIP3     2904     TIP3     H2       HT       0.417000       1.00800           0
     17289 TIP3     2905     TIP3     OH2      OT      -0.834000       15.9994           0
     17290 TIP3     2905     TIP3     H1       HT       0.417000       1.00800           0
     17291 TIP3     2905     TIP3     H2       HT       0.417000       1.00800           0
     17292 TIP3     2906     TIP3     OH2      OT      -0.834000       15.9994           0
     17293 TIP3     2906     TIP3     H1       HT       0.417000       1.00800           0
     17294 TIP3     2906     TIP3     H2       HT       0.417000       1.00800           0
     17295 TIP3     2907     TIP3     OH2      OT      -0.834000       15.9994           0
     17296 TIP3     2907     TIP3     H1       HT       0.417000       1.00800           0
     17297 TIP3     2907     TIP3     H2       HT       0.417000       1.00800           0
     17298 TIP3     2908     TIP3     OH2      OT      -0.834000       15.9994           0
     17299 TIP3     2908     TIP3     H1       HT       0.417000       1.00800           0
     17300 TIP3     2908     TIP3     H2       HT       0.417000       1.00800           0
     17301 TIP3     2909     TIP3     OH2      OT      -0.834000       15.9994           0
     17302 TIP3     2909     TIP3     H1       HT       0.417000       1.00800           0
     17303 TIP3     2909     TIP3     H2       HT       0.417000       1.00800           0
     17304 TIP3     2910     TIP3     OH2      OT      -0.834000       15.9994           0
     17305 TIP3     2910     TIP3     H1       HT       0.417000       1.00800           0
     17306 TIP3     2910     TIP3     H2       HT       0.417000       1.00800           0
     17307 TIP3     2911     TIP3     OH2      OT      -0.834000       15.9994           0
     17308 TIP3     2911     TIP3     H1       HT       0.417000       1.00800           0
     17309 TIP3     2911     TIP3     H2       HT       0.417000       1.00800           0
     17310 TIP3     2912     TIP3     OH2      OT      -0.834000       15.9994           0
     17311 TIP3     2912     TIP3     H1       HT       0.417000       1.00800           0
     17312 TIP3     2912     TIP3     H2       HT       0.417000       1.00800           0
     17313 TIP3     2913     TIP3     OH2      OT      -0.834000       15.9994           0
     17314 TIP3     2913     TIP3     H1       HT       0.417000       1.00800           0
     17315 TIP3     2913     TIP3     H2       HT       0.417000       1.00800           0
     17316 TIP3     2914     TIP3     OH2      OT      -0.834000       15.9994           0
     17317 TIP3     2914     TIP3     H1       HT       0.417000       1.00800           0
     17318 TIP3     2914     TIP3     H2       HT       0.417000       1.00800           0
     17319 TIP3     2915     TIP3     OH2      OT      -0.834000       15.9994           0
     17320 TIP3     2915     TIP3     H1       HT       0.417000       1.00800           0
     17321 TIP3     2915     TIP3     H2       HT       0.417000       1.00800           0
     17322 TIP3     2916     TIP3     OH2      OT      -0.834000       15.9994           0
     17323 TIP3     2916     TIP3     H1       HT       0.417000       1.00800           0
     17324 TIP3     2916     TIP3     H2       HT       0.417000       1.00800           0
     17325 TIP3     2917     TIP3     OH2      OT      -0.834000       15.9994           0
     17326 TIP3     2917     TIP3     H1       HT       0.417000       1.00800           0
     17327 TIP3     2917     TIP3     H2       HT       0.417000       1.00800           0
     17328 TIP3     2918     TIP3     OH2      OT      -0.834000       15.9994           0
     17329 TIP3     2918     TIP3     H1       HT       0.417000       1.00800           0
     17330 TIP3     2918     TIP3     H2       HT       0.417000       1.00800           0
     17331 TIP3     2919     TIP3     OH2      OT      -0.834000       15.9994           0
     17332 TIP3     2919     TIP3     H1       HT       0.417000       1.00800           0
     17333 TIP3     2919     TIP3     H2       HT       0.417000       1.00800           0
     17334 TIP3     2920     TIP3     OH2      OT      -0.834000       15.9994           0
     17335 TIP3     2920     TIP3     H1       HT       0.417000       1.00800           0
     17336 TIP3     2920     TIP3     H2       HT       0.417000       1.00800           0
     17337 TIP3     2921     TIP3     OH2      OT      -0.834000       15.9994           0
     17338 TIP3     2921     TIP3     H1       HT       0.417000       1.00800           0
     17339 TIP3     2921     TIP3     H2       HT       0.417000       1.00800           0
     17340 TIP3     2922     TIP3     OH2      OT      -0.834000       15.9994           0
     17341 TIP3     2922     TIP3     H1       HT       0.417000       1.00800           0
     17342 TIP3     2922     TIP3     H2       HT       0.417000       1.00800           0
     17343 TIP3     2923     TIP3     OH2      OT      -0.834000       15.9994           0
     17344 TIP3     2923     TIP3     H1       HT       0.417000       1.00800           0
     17345 TIP3     2923     TIP3     H2       HT       0.417000       1.00800           0
     17346 TIP3     2924     TIP3     OH2      OT      -0.834000       15.9994           0
     17347 TIP3     2924     TIP3     H1       HT       0.417000       1.00800           0
     17348 TIP3     2924     TIP3     H2       HT       0.417000       1.00800           0
     17349 TIP3     2925     TIP3     OH2      OT      -0.834000       15.9994           0
     17350 TIP3     2925     TIP3     H1       HT       0.417000       1.00800           0
     17351 TIP3     2925     TIP3     H2       HT       0.417000       1.00800           0
     17352 TIP3     2926     TIP3     OH2      OT      -0.834000       15.9994           0
     17353 TIP3     2926     TIP3     H1       HT       0.417000       1.00800           0
     17354 TIP3     2926     TIP3     H2       HT       0.417000       1.00800           0
     17355 TIP3     2927     TIP3     OH2      OT      -0.834000       15.9994           0
     17356 TIP3     2927     TIP3     H1       HT       0.417000       1.00800           0
     17357 TIP3     2927     TIP3     H2       HT       0.417000       1.00800           0
     17358 TIP3     2928     TIP3     OH2      OT      -0.834000       15.9994           0
     17359 TIP3     2928     TIP3     H1       HT       0.417000       1.00800           0
     17360 TIP3     2928     TIP3     H2       HT       0.417000       1.00800           0
     17361 TIP3     2929     TIP3     OH2      OT      -0.834000       15.9994           0
     17362 TIP3     2929     TIP3     H1       HT       0.417000       1.00800           0
     17363 TIP3     2929     TIP3     H2       HT       0.417000       1.00800           0
     17364 TIP3     2930     TIP3     OH2      OT      -0.834000       15.9994           0
     17365 TIP3     2930     TIP3     H1       HT       0.417000       1.00800           0
     17366 TIP3     2930     TIP3     H2       HT       0.417000       1.00800           0
     17367 TIP3     2931     TIP3     OH2      OT      -0.834000       15.9994           0
     17368 TIP3     2931     TIP3     H1       HT       0.417000       1.00800           0
     17369 TIP3     2931     TIP3     H2       HT       0.417000       1.00800           0
     17370 TIP3     2932     TIP3     OH2      OT      -0.834000       15.9994           0
     17371 TIP3     2932     TIP3     H1       HT       0.417000       1.00800           0
     17372 TIP3     2932     TIP3     H2       HT       0.417000       1.00800           0
     17373 TIP3     2933     TIP3     OH2      OT      -0.834000       15.9994           0
     17374 TIP3     2933     TIP3     H1       HT       0.417000       1.00800           0
     17375 TIP3     2933     TIP3     H2       HT       0.417000       1.00800           0
     17376 TIP3     2934     TIP3     OH2      OT      -0.834000       15.9994           0
     17377 TIP3     2934     TIP3     H1       HT       0.417000       1.00800           0
     17378 TIP3     2934     TIP3     H2       HT       0.417000       1.00800           0
     17379 TIP3     2935     TIP3     OH2      OT      -0.834000       15.9994           0
     17380 TIP3     2935     TIP3     H1       HT       0.417000       1.00800           0
     17381 TIP3     2935     TIP3     H2       HT       0.417000       1.00800           0
     17382 TIP3     2936     TIP3     OH2      OT      -0.834000       15.9994           0
     17383 TIP3     2936     TIP3     H1       HT       0.417000       1.00800           0
     17384 TIP3     2936     TIP3     H2       HT       0.417000       1.00800           0
     17385 TIP3     2937     TIP3     OH2      OT      -0.834000       15.9994           0
     17386 TIP3     2937     TIP3     H1       HT       0.417000       1.00800           0
     17387 TIP3     2937     TIP3     H2       HT       0.417000       1.00800           0
     17388 TIP3     2938     TIP3     OH2      OT      -0.834000       15.9994           0
     17389 TIP3     2938     TIP3     H1       HT       0.417000       1.00800           0
     17390 TIP3     2938     TIP3     H2       HT       0.417000       1.00800           0
     17391 TIP3     2939     TIP3     OH2      OT      -0.834000       15.9994           0
     17392 TIP3     2939     TIP3     H1       HT       0.417000       1.00800           0
     17393 TIP3     2939     TIP3     H2       HT       0.417000       1.00800           0
     17394 TIP3     2940     TIP3     OH2      OT      -0.834000       15.9994           0
     17395 TIP3     2940     TIP3     H1       HT       0.417000       1.00800           0
     17396 TIP3     2940     TIP3     H2       HT       0.417000       1.00800           0
     17397 TIP3     2941     TIP3     OH2      OT      -0.834000       15.9994           0
     17398 TIP3     2941     TIP3     H1       HT       0.417000       1.00800           0
     17399 TIP3     2941     TIP3     H2       HT       0.417000       1.00800           0
     17400 TIP3     2942     TIP3     OH2      OT      -0.834000       15.9994           0
     17401 TIP3     2942     TIP3     H1       HT       0.417000       1.00800           0
     17402 TIP3     2942     TIP3     H2       HT       0.417000       1.00800           0
     17403 TIP3     2943     TIP3     OH2      OT      -0.834000       15.9994           0
     17404 TIP3     2943     TIP3     H1       HT       0.417000       1.00800           0
     17405 TIP3     2943     TIP3     H2       HT       0.417000       1.00800           0
     17406 TIP3     2944     TIP3     OH2      OT      -0.834000       15.9994           0
     17407 TIP3     2944     TIP3     H1       HT       0.417000       1.00800           0
     17408 TIP3     2944     TIP3     H2       HT       0.417000       1.00800           0
     17409 TIP3     2945     TIP3     OH2      OT      -0.834000       15.9994           0
     17410 TIP3     2945     TIP3     H1       HT       0.417000       1.00800           0
     17411 TIP3     2945     TIP3     H2       HT       0.417000       1.00800           0
     17412 TIP3     2946     TIP3     OH2      OT      -0.834000       15.9994           0
     17413 TIP3     2946     TIP3     H1       HT       0.417000       1.00800           0
     17414 TIP3     2946     TIP3     H2       HT       0.417000       1.00800           0
     17415 TIP3     2947     TIP3     OH2      OT      -0.834000       15.9994           0
     17416 TIP3     2947     TIP3     H1       HT       0.417000       1.00800           0
     17417 TIP3     2947     TIP3     H2       HT       0.417000       1.00800           0
     17418 TIP3     2948     TIP3     OH2      OT      -0.834000       15.9994           0
     17419 TIP3     2948     TIP3     H1       HT       0.417000       1.00800           0
     17420 TIP3     2948     TIP3     H2       HT       0.417000       1.00800           0
     17421 TIP3     2949     TIP3     OH2      OT      -0.834000       15.9994           0
     17422 TIP3     2949     TIP3     H1       HT       0.417000       1.00800           0
     17423 TIP3     2949     TIP3     H2       HT       0.417000       1.00800           0
     17424 TIP3     2950     TIP3     OH2      OT      -0.834000       15.9994           0
     17425 TIP3     2950     TIP3     H1       HT       0.417000       1.00800           0
     17426 TIP3     2950     TIP3     H2       HT       0.417000       1.00800           0
     17427 TIP3     2951     TIP3     OH2      OT      -0.834000       15.9994           0
     17428 TIP3     2951     TIP3     H1       HT       0.417000       1.00800           0
     17429 TIP3     2951     TIP3     H2       HT       0.417000       1.00800           0
     17430 TIP3     2952     TIP3     OH2      OT      -0.834000       15.9994           0
     17431 TIP3     2952     TIP3     H1       HT       0.417000       1.00800           0
     17432 TIP3     2952     TIP3     H2       HT       0.417000       1.00800           0
     17433 TIP3     2953     TIP3     OH2      OT      -0.834000       15.9994           0
     17434 TIP3     2953     TIP3     H1       HT       0.417000       1.00800           0
     17435 TIP3     2953     TIP3     H2       HT       0.417000       1.00800           0
     17436 TIP3     2954     TIP3     OH2      OT      -0.834000       15.9994           0
     17437 TIP3     2954     TIP3     H1       HT       0.417000       1.00800           0
     17438 TIP3     2954     TIP3     H2       HT       0.417000       1.00800           0
     17439 TIP3     2955     TIP3     OH2      OT      -0.834000       15.9994           0
     17440 TIP3     2955     TIP3     H1       HT       0.417000       1.00800           0
     17441 TIP3     2955     TIP3     H2       HT       0.417000       1.00800           0
     17442 TIP3     2956     TIP3     OH2      OT      -0.834000       15.9994           0
     17443 TIP3     2956     TIP3     H1       HT       0.417000       1.00800           0
     17444 TIP3     2956     TIP3     H2       HT       0.417000       1.00800           0
     17445 TIP3     2957     TIP3     OH2      OT      -0.834000       15.9994           0
     17446 TIP3     2957     TIP3     H1       HT       0.417000       1.00800           0
     17447 TIP3     2957     TIP3     H2       HT       0.417000       1.00800           0
     17448 TIP3     2958     TIP3     OH2      OT      -0.834000       15.9994           0
     17449 TIP3     2958     TIP3     H1       HT       0.417000       1.00800           0
     17450 TIP3     2958     TIP3     H2       HT       0.417000       1.00800           0
     17451 TIP3     2959     TIP3     OH2      OT      -0.834000       15.9994           0
     17452 TIP3     2959     TIP3     H1       HT       0.417000       1.00800           0
     17453 TIP3     2959     TIP3     H2       HT       0.417000       1.00800           0
     17454 TIP3     2960     TIP3     OH2      OT      -0.834000       15.9994           0
     17455 TIP3     2960     TIP3     H1       HT       0.417000       1.00800           0
     17456 TIP3     2960     TIP3     H2       HT       0.417000       1.00800           0
     17457 TIP3     2961     TIP3     OH2      OT      -0.834000       15.9994           0
     17458 TIP3     2961     TIP3     H1       HT       0.417000       1.00800           0
     17459 TIP3     2961     TIP3     H2       HT       0.417000       1.00800           0
     17460 TIP3     2962     TIP3     OH2      OT      -0.834000       15.9994           0
     17461 TIP3     2962     TIP3     H1       HT       0.417000       1.00800           0
     17462 TIP3     2962     TIP3     H2       HT       0.417000       1.00800           0
     17463 TIP3     2963     TIP3     OH2      OT      -0.834000       15.9994           0
     17464 TIP3     2963     TIP3     H1       HT       0.417000       1.00800           0
     17465 TIP3     2963     TIP3     H2       HT       0.417000       1.00800           0
     17466 TIP3     2964     TIP3     OH2      OT      -0.834000       15.9994           0
     17467 TIP3     2964     TIP3     H1       HT       0.417000       1.00800           0
     17468 TIP3     2964     TIP3     H2       HT       0.417000       1.00800           0
     17469 TIP3     2965     TIP3     OH2      OT      -0.834000       15.9994           0
     17470 TIP3     2965     TIP3     H1       HT       0.417000       1.00800           0
     17471 TIP3     2965     TIP3     H2       HT       0.417000       1.00800           0
     17472 TIP3     2966     TIP3     OH2      OT      -0.834000       15.9994           0
     17473 TIP3     2966     TIP3     H1       HT       0.417000       1.00800           0
     17474 TIP3     2966     TIP3     H2       HT       0.417000       1.00800           0
     17475 TIP3     2967     TIP3     OH2      OT      -0.834000       15.9994           0
     17476 TIP3     2967     TIP3     H1       HT       0.417000       1.00800           0
     17477 TIP3     2967     TIP3     H2       HT       0.417000       1.00800           0
     17478 TIP3     2968     TIP3     OH2      OT      -0.834000       15.9994           0
     17479 TIP3     2968     TIP3     H1       HT       0.417000       1.00800           0
     17480 TIP3     2968     TIP3     H2       HT       0.417000       1.00800           0
     17481 TIP3     2969     TIP3     OH2      OT      -0.834000       15.9994           0
     17482 TIP3     2969     TIP3     H1       HT       0.417000       1.00800           0
     17483 TIP3     2969     TIP3     H2       HT       0.417000       1.00800           0
     17484 TIP3     2970     TIP3     OH2      OT      -0.834000       15.9994           0
     17485 TIP3     2970     TIP3     H1       HT       0.417000       1.00800           0
     17486 TIP3     2970     TIP3     H2       HT       0.417000       1.00800           0
     17487 TIP3     2971     TIP3     OH2      OT      -0.834000       15.9994           0
     17488 TIP3     2971     TIP3     H1       HT       0.417000       1.00800           0
     17489 TIP3     2971     TIP3     H2       HT       0.417000       1.00800           0
     17490 TIP3     2972     TIP3     OH2      OT      -0.834000       15.9994           0
     17491 TIP3     2972     TIP3     H1       HT       0.417000       1.00800           0
     17492 TIP3     2972     TIP3     H2       HT       0.417000       1.00800           0
     17493 TIP3     2973     TIP3     OH2      OT      -0.834000       15.9994           0
     17494 TIP3     2973     TIP3     H1       HT       0.417000       1.00800           0
     17495 TIP3     2973     TIP3     H2       HT       0.417000       1.00800           0
     17496 TIP3     2974     TIP3     OH2      OT      -0.834000       15.9994           0
     17497 TIP3     2974     TIP3     H1       HT       0.417000       1.00800           0
     17498 TIP3     2974     TIP3     H2       HT       0.417000       1.00800           0
     17499 TIP3     2975     TIP3     OH2      OT      -0.834000       15.9994           0
     17500 TIP3     2975     TIP3     H1       HT       0.417000       1.00800           0
     17501 TIP3     2975     TIP3     H2       HT       0.417000       1.00800           0
     17502 TIP3     2976     TIP3     OH2      OT      -0.834000       15.9994           0
     17503 TIP3     2976     TIP3     H1       HT       0.417000       1.00800           0
     17504 TIP3     2976     TIP3     H2       HT       0.417000       1.00800           0
     17505 TIP3     2977     TIP3     OH2      OT      -0.834000       15.9994           0
     17506 TIP3     2977     TIP3     H1       HT       0.417000       1.00800           0
     17507 TIP3     2977     TIP3     H2       HT       0.417000       1.00800           0
     17508 TIP3     2978     TIP3     OH2      OT      -0.834000       15.9994           0
     17509 TIP3     2978     TIP3     H1       HT       0.417000       1.00800           0
     17510 TIP3     2978     TIP3     H2       HT       0.417000       1.00800           0
     17511 TIP3     2979     TIP3     OH2      OT      -0.834000       15.9994           0
     17512 TIP3     2979     TIP3     H1       HT       0.417000       1.00800           0
     17513 TIP3     2979     TIP3     H2       HT       0.417000       1.00800           0
     17514 TIP3     2980     TIP3     OH2      OT      -0.834000       15.9994           0
     17515 TIP3     2980     TIP3     H1       HT       0.417000       1.00800           0
     17516 TIP3     2980     TIP3     H2       HT       0.417000       1.00800           0
     17517 TIP3     2981     TIP3     OH2      OT      -0.834000       15.9994           0
     17518 TIP3     2981     TIP3     H1       HT       0.417000       1.00800           0
     17519 TIP3     2981     TIP3     H2       HT       0.417000       1.00800           0
     17520 TIP3     2982     TIP3     OH2      OT      -0.834000       15.9994           0
     17521 TIP3     2982     TIP3     H1       HT       0.417000       1.00800           0
     17522 TIP3     2982     TIP3     H2       HT       0.417000       1.00800           0
     17523 TIP3     2983     TIP3     OH2      OT      -0.834000       15.9994           0
     17524 TIP3     2983     TIP3     H1       HT       0.417000       1.00800           0
     17525 TIP3     2983     TIP3     H2       HT       0.417000       1.00800           0
     17526 TIP3     2984     TIP3     OH2      OT      -0.834000       15.9994           0
     17527 TIP3     2984     TIP3     H1       HT       0.417000       1.00800           0
     17528 TIP3     2984     TIP3     H2       HT       0.417000       1.00800           0
     17529 TIP3     2985     TIP3     OH2      OT      -0.834000       15.9994           0
     17530 TIP3     2985     TIP3     H1       HT       0.417000       1.00800           0
     17531 TIP3     2985     TIP3     H2       HT       0.417000       1.00800           0
     17532 TIP3     2986     TIP3     OH2      OT      -0.834000       15.9994           0
     17533 TIP3     2986     TIP3     H1       HT       0.417000       1.00800           0
     17534 TIP3     2986     TIP3     H2       HT       0.417000       1.00800           0
     17535 TIP3     2987     TIP3     OH2      OT      -0.834000       15.9994           0
     17536 TIP3     2987     TIP3     H1       HT       0.417000       1.00800           0
     17537 TIP3     2987     TIP3     H2       HT       0.417000       1.00800           0
     17538 TIP3     2988     TIP3     OH2      OT      -0.834000       15.9994           0
     17539 TIP3     2988     TIP3     H1       HT       0.417000       1.00800           0
     17540 TIP3     2988     TIP3     H2       HT       0.417000       1.00800           0
     17541 TIP3     2989     TIP3     OH2      OT      -0.834000       15.9994           0
     17542 TIP3     2989     TIP3     H1       HT       0.417000       1.00800           0
     17543 TIP3     2989     TIP3     H2       HT       0.417000       1.00800           0
     17544 TIP3     2990     TIP3     OH2      OT      -0.834000       15.9994           0
     17545 TIP3     2990     TIP3     H1       HT       0.417000       1.00800           0
     17546 TIP3     2990     TIP3     H2       HT       0.417000       1.00800           0
     17547 TIP3     2991     TIP3     OH2      OT      -0.834000       15.9994           0
     17548 TIP3     2991     TIP3     H1       HT       0.417000       1.00800           0
     17549 TIP3     2991     TIP3     H2       HT       0.417000       1.00800           0
     17550 TIP3     2992     TIP3     OH2      OT      -0.834000       15.9994           0
     17551 TIP3     2992     TIP3     H1       HT       0.417000       1.00800           0
     17552 TIP3     2992     TIP3     H2       HT       0.417000       1.00800           0
     17553 TIP3     2993     TIP3     OH2      OT      -0.834000       15.9994           0
     17554 TIP3     2993     TIP3     H1       HT       0.417000       1.00800           0
     17555 TIP3     2993     TIP3     H2       HT       0.417000       1.00800           0
     17556 TIP3     2994     TIP3     OH2      OT      -0.834000       15.9994           0
     17557 TIP3     2994     TIP3     H1       HT       0.417000       1.00800           0
     17558 TIP3     2994     TIP3     H2       HT       0.417000       1.00800           0
     17559 TIP3     2995     TIP3     OH2      OT      -0.834000       15.9994           0
     17560 TIP3     2995     TIP3     H1       HT       0.417000       1.00800           0
     17561 TIP3     2995     TIP3     H2       HT       0.417000       1.00800           0
     17562 TIP3     2996     TIP3     OH2      OT      -0.834000       15.9994           0
     17563 TIP3     2996     TIP3     H1       HT       0.417000       1.00800           0
     17564 TIP3     2996     TIP3     H2       HT       0.417000       1.00800           0
     17565 TIP3     2997     TIP3     OH2      OT      -0.834000       15.9994           0
     17566 TIP3     2997     TIP3     H1       HT       0.417000       1.00800           0
     17567 TIP3     2997     TIP3     H2       HT       0.417000       1.00800           0
     17568 TIP3     2998     TIP3     OH2      OT      -0.834000       15.9994           0
     17569 TIP3     2998     TIP3     H1       HT       0.417000       1.00800           0
     17570 TIP3     2998     TIP3     H2       HT       0.417000       1.00800           0
     17571 TIP3     2999     TIP3     OH2      OT      -0.834000       15.9994           0
     17572 TIP3     2999     TIP3     H1       HT       0.417000       1.00800           0
     17573 TIP3     2999     TIP3     H2       HT       0.417000       1.00800           0
     17574 TIP3     3000     TIP3     OH2      OT      -0.834000       15.9994           0
     17575 TIP3     3000     TIP3     H1       HT       0.417000       1.00800           0
     17576 TIP3     3000     TIP3     H2       HT       0.417000       1.00800           0
     17577 TIP3     3001     TIP3     OH2      OT      -0.834000       15.9994           0
     17578 TIP3     3001     TIP3     H1       HT       0.417000       1.00800           0
     17579 TIP3     3001     TIP3     H2       HT       0.417000       1.00800           0
     17580 TIP3     3002     TIP3     OH2      OT      -0.834000       15.9994           0
     17581 TIP3     3002     TIP3     H1       HT       0.417000       1.00800           0
     17582 TIP3     3002     TIP3     H2       HT       0.417000       1.00800           0
     17583 TIP3     3003     TIP3     OH2      OT      -0.834000       15.9994           0
     17584 TIP3     3003     TIP3     H1       HT       0.417000       1.00800           0
     17585 TIP3     3003     TIP3     H2       HT       0.417000       1.00800           0
     17586 TIP3     3004     TIP3     OH2      OT      -0.834000       15.9994           0
     17587 TIP3     3004     TIP3     H1       HT       0.417000       1.00800           0
     17588 TIP3     3004     TIP3     H2       HT       0.417000       1.00800           0
     17589 TIP3     3005     TIP3     OH2      OT      -0.834000       15.9994           0
     17590 TIP3     3005     TIP3     H1       HT       0.417000       1.00800           0
     17591 TIP3     3005     TIP3     H2       HT       0.417000       1.00800           0
     17592 TIP3     3006     TIP3     OH2      OT      -0.834000       15.9994           0
     17593 TIP3     3006     TIP3     H1       HT       0.417000       1.00800           0
     17594 TIP3     3006     TIP3     H2       HT       0.417000       1.00800           0
     17595 TIP3     3007     TIP3     OH2      OT      -0.834000       15.9994           0
     17596 TIP3     3007     TIP3     H1       HT       0.417000       1.00800           0
     17597 TIP3     3007     TIP3     H2       HT       0.417000       1.00800           0
     17598 TIP3     3008     TIP3     OH2      OT      -0.834000       15.9994           0
     17599 TIP3     3008     TIP3     H1       HT       0.417000       1.00800           0
     17600 TIP3     3008     TIP3     H2       HT       0.417000       1.00800           0
     17601 TIP3     3009     TIP3     OH2      OT      -0.834000       15.9994           0
     17602 TIP3     3009     TIP3     H1       HT       0.417000       1.00800           0
     17603 TIP3     3009     TIP3     H2       HT       0.417000       1.00800           0
     17604 TIP3     3010     TIP3     OH2      OT      -0.834000       15.9994           0
     17605 TIP3     3010     TIP3     H1       HT       0.417000       1.00800           0
     17606 TIP3     3010     TIP3     H2       HT       0.417000       1.00800           0
     17607 TIP3     3011     TIP3     OH2      OT      -0.834000       15.9994           0
     17608 TIP3     3011     TIP3     H1       HT       0.417000       1.00800           0
     17609 TIP3     3011     TIP3     H2       HT       0.417000       1.00800           0
     17610 TIP3     3012     TIP3     OH2      OT      -0.834000       15.9994           0
     17611 TIP3     3012     TIP3     H1       HT       0.417000       1.00800           0
     17612 TIP3     3012     TIP3     H2       HT       0.417000       1.00800           0
     17613 TIP3     3013     TIP3     OH2      OT      -0.834000       15.9994           0
     17614 TIP3     3013     TIP3     H1       HT       0.417000       1.00800           0
     17615 TIP3     3013     TIP3     H2       HT       0.417000       1.00800           0
     17616 TIP3     3014     TIP3     OH2      OT      -0.834000       15.9994           0
     17617 TIP3     3014     TIP3     H1       HT       0.417000       1.00800           0
     17618 TIP3     3014     TIP3     H2       HT       0.417000       1.00800           0
     17619 TIP3     3015     TIP3     OH2      OT      -0.834000       15.9994           0
     17620 TIP3     3015     TIP3     H1       HT       0.417000       1.00800           0
     17621 TIP3     3015     TIP3     H2       HT       0.417000       1.00800           0
     17622 TIP3     3016     TIP3     OH2      OT      -0.834000       15.9994           0
     17623 TIP3     3016     TIP3     H1       HT       0.417000       1.00800           0
     17624 TIP3     3016     TIP3     H2       HT       0.417000       1.00800           0
     17625 TIP3     3017     TIP3     OH2      OT      -0.834000       15.9994           0
     17626 TIP3     3017     TIP3     H1       HT       0.417000       1.00800           0
     17627 TIP3     3017     TIP3     H2       HT       0.417000       1.00800           0
     17628 TIP3     3018     TIP3     OH2      OT      -0.834000       15.9994           0
     17629 TIP3     3018     TIP3     H1       HT       0.417000       1.00800           0
     17630 TIP3     3018     TIP3     H2       HT       0.417000       1.00800           0
     17631 TIP3     3019     TIP3     OH2      OT      -0.834000       15.9994           0
     17632 TIP3     3019     TIP3     H1       HT       0.417000       1.00800           0
     17633 TIP3     3019     TIP3     H2       HT       0.417000       1.00800           0
     17634 TIP3     3020     TIP3     OH2      OT      -0.834000       15.9994           0
     17635 TIP3     3020     TIP3     H1       HT       0.417000       1.00800           0
     17636 TIP3     3020     TIP3     H2       HT       0.417000       1.00800           0
     17637 TIP3     3021     TIP3     OH2      OT      -0.834000       15.9994           0
     17638 TIP3     3021     TIP3     H1       HT       0.417000       1.00800           0
     17639 TIP3     3021     TIP3     H2       HT       0.417000       1.00800           0
     17640 TIP3     3022     TIP3     OH2      OT      -0.834000       15.9994           0
     17641 TIP3     3022     TIP3     H1       HT       0.417000       1.00800           0
     17642 TIP3     3022     TIP3     H2       HT       0.417000       1.00800           0
     17643 TIP3     3023     TIP3     OH2      OT      -0.834000       15.9994           0
     17644 TIP3     3023     TIP3     H1       HT       0.417000       1.00800           0
     17645 TIP3     3023     TIP3     H2       HT       0.417000       1.00800           0
     17646 TIP3     3024     TIP3     OH2      OT      -0.834000       15.9994           0
     17647 TIP3     3024     TIP3     H1       HT       0.417000       1.00800           0
     17648 TIP3     3024     TIP3     H2       HT       0.417000       1.00800           0
     17649 TIP3     3025     TIP3     OH2      OT      -0.834000       15.9994           0
     17650 TIP3     3025     TIP3     H1       HT       0.417000       1.00800           0
     17651 TIP3     3025     TIP3     H2       HT       0.417000       1.00800           0
     17652 TIP3     3026     TIP3     OH2      OT      -0.834000       15.9994           0
     17653 TIP3     3026     TIP3     H1       HT       0.417000       1.00800           0
     17654 TIP3     3026     TIP3     H2       HT       0.417000       1.00800           0
     17655 TIP3     3027     TIP3     OH2      OT      -0.834000       15.9994           0
     17656 TIP3     3027     TIP3     H1       HT       0.417000       1.00800           0
     17657 TIP3     3027     TIP3     H2       HT       0.417000       1.00800           0
     17658 TIP3     3028     TIP3     OH2      OT      -0.834000       15.9994           0
     17659 TIP3     3028     TIP3     H1       HT       0.417000       1.00800           0
     17660 TIP3     3028     TIP3     H2       HT       0.417000       1.00800           0
     17661 TIP3     3029     TIP3     OH2      OT      -0.834000       15.9994           0
     17662 TIP3     3029     TIP3     H1       HT       0.417000       1.00800           0
     17663 TIP3     3029     TIP3     H2       HT       0.417000       1.00800           0
     17664 TIP3     3030     TIP3     OH2      OT      -0.834000       15.9994           0
     17665 TIP3     3030     TIP3     H1       HT       0.417000       1.00800           0
     17666 TIP3     3030     TIP3     H2       HT       0.417000       1.00800           0
     17667 TIP3     3031     TIP3     OH2      OT      -0.834000       15.9994           0
     17668 TIP3     3031     TIP3     H1       HT       0.417000       1.00800           0
     17669 TIP3     3031     TIP3     H2       HT       0.417000       1.00800           0
     17670 TIP3     3032     TIP3     OH2      OT      -0.834000       15.9994           0
     17671 TIP3     3032     TIP3     H1       HT       0.417000       1.00800           0
     17672 TIP3     3032     TIP3     H2       HT       0.417000       1.00800           0
     17673 TIP3     3033     TIP3     OH2      OT      -0.834000       15.9994           0
     17674 TIP3     3033     TIP3     H1       HT       0.417000       1.00800           0
     17675 TIP3     3033     TIP3     H2       HT       0.417000       1.00800           0
     17676 TIP3     3034     TIP3     OH2      OT      -0.834000       15.9994           0
     17677 TIP3     3034     TIP3     H1       HT       0.417000       1.00800           0
     17678 TIP3     3034     TIP3     H2       HT       0.417000       1.00800           0
     17679 TIP3     3035     TIP3     OH2      OT      -0.834000       15.9994           0
     17680 TIP3     3035     TIP3     H1       HT       0.417000       1.00800           0
     17681 TIP3     3035     TIP3     H2       HT       0.417000       1.00800           0
     17682 TIP3     3036     TIP3     OH2      OT      -0.834000       15.9994           0
     17683 TIP3     3036     TIP3     H1       HT       0.417000       1.00800           0
     17684 TIP3     3036     TIP3     H2       HT       0.417000       1.00800           0
     17685 TIP3     3037     TIP3     OH2      OT      -0.834000       15.9994           0
     17686 TIP3     3037     TIP3     H1       HT       0.417000       1.00800           0
     17687 TIP3     3037     TIP3     H2       HT       0.417000       1.00800           0
     17688 TIP3     3038     TIP3     OH2      OT      -0.834000       15.9994           0
     17689 TIP3     3038     TIP3     H1       HT       0.417000       1.00800           0
     17690 TIP3     3038     TIP3     H2       HT       0.417000       1.00800           0
     17691 TIP3     3039     TIP3     OH2      OT      -0.834000       15.9994           0
     17692 TIP3     3039     TIP3     H1       HT       0.417000       1.00800           0
     17693 TIP3     3039     TIP3     H2       HT       0.417000       1.00800           0
     17694 TIP3     3040     TIP3     OH2      OT      -0.834000       15.9994           0
     17695 TIP3     3040     TIP3     H1       HT       0.417000       1.00800           0
     17696 TIP3     3040     TIP3     H2       HT       0.417000       1.00800           0
     17697 TIP3     3041     TIP3     OH2      OT      -0.834000       15.9994           0
     17698 TIP3     3041     TIP3     H1       HT       0.417000       1.00800           0
     17699 TIP3     3041     TIP3     H2       HT       0.417000       1.00800           0
     17700 TIP3     3042     TIP3     OH2      OT      -0.834000       15.9994           0
     17701 TIP3     3042     TIP3     H1       HT       0.417000       1.00800           0
     17702 TIP3     3042     TIP3     H2       HT       0.417000       1.00800           0
     17703 TIP3     3043     TIP3     OH2      OT      -0.834000       15.9994           0
     17704 TIP3     3043     TIP3     H1       HT       0.417000       1.00800           0
     17705 TIP3     3043     TIP3     H2       HT       0.417000       1.00800           0
     17706 TIP3     3044     TIP3     OH2      OT      -0.834000       15.9994           0
     17707 TIP3     3044     TIP3     H1       HT       0.417000       1.00800           0
     17708 TIP3     3044     TIP3     H2       HT       0.417000       1.00800           0
     17709 TIP3     3045     TIP3     OH2      OT      -0.834000       15.9994           0
     17710 TIP3     3045     TIP3     H1       HT       0.417000       1.00800           0
     17711 TIP3     3045     TIP3     H2       HT       0.417000       1.00800           0
     17712 TIP3     3046     TIP3     OH2      OT      -0.834000       15.9994           0
     17713 TIP3     3046     TIP3     H1       HT       0.417000       1.00800           0
     17714 TIP3     3046     TIP3     H2       HT       0.417000       1.00800           0
     17715 TIP3     3047     TIP3     OH2      OT      -0.834000       15.9994           0
     17716 TIP3     3047     TIP3     H1       HT       0.417000       1.00800           0
     17717 TIP3     3047     TIP3     H2       HT       0.417000       1.00800           0
     17718 TIP3     3048     TIP3     OH2      OT      -0.834000       15.9994           0
     17719 TIP3     3048     TIP3     H1       HT       0.417000       1.00800           0
     17720 TIP3     3048     TIP3     H2       HT       0.417000       1.00800           0
     17721 TIP3     3049     TIP3     OH2      OT      -0.834000       15.9994           0
     17722 TIP3     3049     TIP3     H1       HT       0.417000       1.00800           0
     17723 TIP3     3049     TIP3     H2       HT       0.417000       1.00800           0
     17724 TIP3     3050     TIP3     OH2      OT      -0.834000       15.9994           0
     17725 TIP3     3050     TIP3     H1       HT       0.417000       1.00800           0
     17726 TIP3     3050     TIP3     H2       HT       0.417000       1.00800           0
     17727 TIP3     3051     TIP3     OH2      OT      -0.834000       15.9994           0
     17728 TIP3     3051     TIP3     H1       HT       0.417000       1.00800           0
     17729 TIP3     3051     TIP3     H2       HT       0.417000       1.00800           0
     17730 TIP3     3052     TIP3     OH2      OT      -0.834000       15.9994           0
     17731 TIP3     3052     TIP3     H1       HT       0.417000       1.00800           0
     17732 TIP3     3052     TIP3     H2       HT       0.417000       1.00800           0
     17733 TIP3     3053     TIP3     OH2      OT      -0.834000       15.9994           0
     17734 TIP3     3053     TIP3     H1       HT       0.417000       1.00800           0
     17735 TIP3     3053     TIP3     H2       HT       0.417000       1.00800           0
     17736 TIP3     3054     TIP3     OH2      OT      -0.834000       15.9994           0
     17737 TIP3     3054     TIP3     H1       HT       0.417000       1.00800           0
     17738 TIP3     3054     TIP3     H2       HT       0.417000       1.00800           0
     17739 TIP3     3055     TIP3     OH2      OT      -0.834000       15.9994           0
     17740 TIP3     3055     TIP3     H1       HT       0.417000       1.00800           0
     17741 TIP3     3055     TIP3     H2       HT       0.417000       1.00800           0
     17742 TIP3     3056     TIP3     OH2      OT      -0.834000       15.9994           0
     17743 TIP3     3056     TIP3     H1       HT       0.417000       1.00800           0
     17744 TIP3     3056     TIP3     H2       HT       0.417000       1.00800           0
     17745 TIP3     3057     TIP3     OH2      OT      -0.834000       15.9994           0
     17746 TIP3     3057     TIP3     H1       HT       0.417000       1.00800           0
     17747 TIP3     3057     TIP3     H2       HT       0.417000       1.00800           0
     17748 TIP3     3058     TIP3     OH2      OT      -0.834000       15.9994           0
     17749 TIP3     3058     TIP3     H1       HT       0.417000       1.00800           0
     17750 TIP3     3058     TIP3     H2       HT       0.417000       1.00800           0
     17751 TIP3     3059     TIP3     OH2      OT      -0.834000       15.9994           0
     17752 TIP3     3059     TIP3     H1       HT       0.417000       1.00800           0
     17753 TIP3     3059     TIP3     H2       HT       0.417000       1.00800           0
     17754 TIP3     3060     TIP3     OH2      OT      -0.834000       15.9994           0
     17755 TIP3     3060     TIP3     H1       HT       0.417000       1.00800           0
     17756 TIP3     3060     TIP3     H2       HT       0.417000       1.00800           0
     17757 TIP3     3061     TIP3     OH2      OT      -0.834000       15.9994           0
     17758 TIP3     3061     TIP3     H1       HT       0.417000       1.00800           0
     17759 TIP3     3061     TIP3     H2       HT       0.417000       1.00800           0
     17760 TIP3     3062     TIP3     OH2      OT      -0.834000       15.9994           0
     17761 TIP3     3062     TIP3     H1       HT       0.417000       1.00800           0
     17762 TIP3     3062     TIP3     H2       HT       0.417000       1.00800           0
     17763 TIP3     3063     TIP3     OH2      OT      -0.834000       15.9994           0
     17764 TIP3     3063     TIP3     H1       HT       0.417000       1.00800           0
     17765 TIP3     3063     TIP3     H2       HT       0.417000       1.00800           0
     17766 TIP3     3064     TIP3     OH2      OT      -0.834000       15.9994           0
     17767 TIP3     3064     TIP3     H1       HT       0.417000       1.00800           0
     17768 TIP3     3064     TIP3     H2       HT       0.417000       1.00800           0
     17769 TIP3     3065     TIP3     OH2      OT      -0.834000       15.9994           0
     17770 TIP3     3065     TIP3     H1       HT       0.417000       1.00800           0
     17771 TIP3     3065     TIP3     H2       HT       0.417000       1.00800           0
     17772 TIP3     3066     TIP3     OH2      OT      -0.834000       15.9994           0
     17773 TIP3     3066     TIP3     H1       HT       0.417000       1.00800           0
     17774 TIP3     3066     TIP3     H2       HT       0.417000       1.00800           0
     17775 TIP3     3067     TIP3     OH2      OT      -0.834000       15.9994           0
     17776 TIP3     3067     TIP3     H1       HT       0.417000       1.00800           0
     17777 TIP3     3067     TIP3     H2       HT       0.417000       1.00800           0
     17778 TIP3     3068     TIP3     OH2      OT      -0.834000       15.9994           0
     17779 TIP3     3068     TIP3     H1       HT       0.417000       1.00800           0
     17780 TIP3     3068     TIP3     H2       HT       0.417000       1.00800           0
     17781 TIP3     3069     TIP3     OH2      OT      -0.834000       15.9994           0
     17782 TIP3     3069     TIP3     H1       HT       0.417000       1.00800           0
     17783 TIP3     3069     TIP3     H2       HT       0.417000       1.00800           0
     17784 TIP3     3070     TIP3     OH2      OT      -0.834000       15.9994           0
     17785 TIP3     3070     TIP3     H1       HT       0.417000       1.00800           0
     17786 TIP3     3070     TIP3     H2       HT       0.417000       1.00800           0
     17787 TIP3     3071     TIP3     OH2      OT      -0.834000       15.9994           0
     17788 TIP3     3071     TIP3     H1       HT       0.417000       1.00800           0
     17789 TIP3     3071     TIP3     H2       HT       0.417000       1.00800           0
     17790 TIP3     3072     TIP3     OH2      OT      -0.834000       15.9994           0
     17791 TIP3     3072     TIP3     H1       HT       0.417000       1.00800           0
     17792 TIP3     3072     TIP3     H2       HT       0.417000       1.00800           0
     17793 TIP3     3073     TIP3     OH2      OT      -0.834000       15.9994           0
     17794 TIP3     3073     TIP3     H1       HT       0.417000       1.00800           0
     17795 TIP3     3073     TIP3     H2       HT       0.417000       1.00800           0
     17796 TIP3     3074     TIP3     OH2      OT      -0.834000       15.9994           0
     17797 TIP3     3074     TIP3     H1       HT       0.417000       1.00800           0
     17798 TIP3     3074     TIP3     H2       HT       0.417000       1.00800           0
     17799 TIP3     3075     TIP3     OH2      OT      -0.834000       15.9994           0
     17800 TIP3     3075     TIP3     H1       HT       0.417000       1.00800           0
     17801 TIP3     3075     TIP3     H2       HT       0.417000       1.00800           0
     17802 TIP3     3076     TIP3     OH2      OT      -0.834000       15.9994           0
     17803 TIP3     3076     TIP3     H1       HT       0.417000       1.00800           0
     17804 TIP3     3076     TIP3     H2       HT       0.417000       1.00800           0
     17805 TIP3     3077     TIP3     OH2      OT      -0.834000       15.9994           0
     17806 TIP3     3077     TIP3     H1       HT       0.417000       1.00800           0
     17807 TIP3     3077     TIP3     H2       HT       0.417000       1.00800           0
     17808 TIP3     3078     TIP3     OH2      OT      -0.834000       15.9994           0
     17809 TIP3     3078     TIP3     H1       HT       0.417000       1.00800           0
     17810 TIP3     3078     TIP3     H2       HT       0.417000       1.00800           0
     17811 TIP3     3079     TIP3     OH2      OT      -0.834000       15.9994           0
     17812 TIP3     3079     TIP3     H1       HT       0.417000       1.00800           0
     17813 TIP3     3079     TIP3     H2       HT       0.417000       1.00800           0
     17814 TIP3     3080     TIP3     OH2      OT      -0.834000       15.9994           0
     17815 TIP3     3080     TIP3     H1       HT       0.417000       1.00800           0
     17816 TIP3     3080     TIP3     H2       HT       0.417000       1.00800           0
     17817 TIP3     3081     TIP3     OH2      OT      -0.834000       15.9994           0
     17818 TIP3     3081     TIP3     H1       HT       0.417000       1.00800           0
     17819 TIP3     3081     TIP3     H2       HT       0.417000       1.00800           0
     17820 TIP3     3082     TIP3     OH2      OT      -0.834000       15.9994           0
     17821 TIP3     3082     TIP3     H1       HT       0.417000       1.00800           0
     17822 TIP3     3082     TIP3     H2       HT       0.417000       1.00800           0
     17823 TIP3     3083     TIP3     OH2      OT      -0.834000       15.9994           0
     17824 TIP3     3083     TIP3     H1       HT       0.417000       1.00800           0
     17825 TIP3     3083     TIP3     H2       HT       0.417000       1.00800           0
     17826 TIP3     3084     TIP3     OH2      OT      -0.834000       15.9994           0
     17827 TIP3     3084     TIP3     H1       HT       0.417000       1.00800           0
     17828 TIP3     3084     TIP3     H2       HT       0.417000       1.00800           0
     17829 TIP3     3085     TIP3     OH2      OT      -0.834000       15.9994           0
     17830 TIP3     3085     TIP3     H1       HT       0.417000       1.00800           0
     17831 TIP3     3085     TIP3     H2       HT       0.417000       1.00800           0
     17832 TIP3     3086     TIP3     OH2      OT      -0.834000       15.9994           0
     17833 TIP3     3086     TIP3     H1       HT       0.417000       1.00800           0
     17834 TIP3     3086     TIP3     H2       HT       0.417000       1.00800           0
     17835 TIP3     3087     TIP3     OH2      OT      -0.834000       15.9994           0
     17836 TIP3     3087     TIP3     H1       HT       0.417000       1.00800           0
     17837 TIP3     3087     TIP3     H2       HT       0.417000       1.00800           0
     17838 TIP3     3088     TIP3     OH2      OT      -0.834000       15.9994           0
     17839 TIP3     3088     TIP3     H1       HT       0.417000       1.00800           0
     17840 TIP3     3088     TIP3     H2       HT       0.417000       1.00800           0
     17841 TIP3     3089     TIP3     OH2      OT      -0.834000       15.9994           0
     17842 TIP3     3089     TIP3     H1       HT       0.417000       1.00800           0
     17843 TIP3     3089     TIP3     H2       HT       0.417000       1.00800           0
     17844 TIP3     3090     TIP3     OH2      OT      -0.834000       15.9994           0
     17845 TIP3     3090     TIP3     H1       HT       0.417000       1.00800           0
     17846 TIP3     3090     TIP3     H2       HT       0.417000       1.00800           0
     17847 TIP3     3091     TIP3     OH2      OT      -0.834000       15.9994           0
     17848 TIP3     3091     TIP3     H1       HT       0.417000       1.00800           0
     17849 TIP3     3091     TIP3     H2       HT       0.417000       1.00800           0
     17850 TIP3     3092     TIP3     OH2      OT      -0.834000       15.9994           0
     17851 TIP3     3092     TIP3     H1       HT       0.417000       1.00800           0
     17852 TIP3     3092     TIP3     H2       HT       0.417000       1.00800           0
     17853 TIP3     3093     TIP3     OH2      OT      -0.834000       15.9994           0
     17854 TIP3     3093     TIP3     H1       HT       0.417000       1.00800           0
     17855 TIP3     3093     TIP3     H2       HT       0.417000       1.00800           0
     17856 TIP3     3094     TIP3     OH2      OT      -0.834000       15.9994           0
     17857 TIP3     3094     TIP3     H1       HT       0.417000       1.00800           0
     17858 TIP3     3094     TIP3     H2       HT       0.417000       1.00800           0
     17859 TIP3     3095     TIP3     OH2      OT      -0.834000       15.9994           0
     17860 TIP3     3095     TIP3     H1       HT       0.417000       1.00800           0
     17861 TIP3     3095     TIP3     H2       HT       0.417000       1.00800           0
     17862 TIP3     3096     TIP3     OH2      OT      -0.834000       15.9994           0
     17863 TIP3     3096     TIP3     H1       HT       0.417000       1.00800           0
     17864 TIP3     3096     TIP3     H2       HT       0.417000       1.00800           0
     17865 TIP3     3097     TIP3     OH2      OT      -0.834000       15.9994           0
     17866 TIP3     3097     TIP3     H1       HT       0.417000       1.00800           0
     17867 TIP3     3097     TIP3     H2       HT       0.417000       1.00800           0
     17868 TIP3     3098     TIP3     OH2      OT      -0.834000       15.9994           0
     17869 TIP3     3098     TIP3     H1       HT       0.417000       1.00800           0
     17870 TIP3     3098     TIP3     H2       HT       0.417000       1.00800           0
     17871 TIP3     3099     TIP3     OH2      OT      -0.834000       15.9994           0
     17872 TIP3     3099     TIP3     H1       HT       0.417000       1.00800           0
     17873 TIP3     3099     TIP3     H2       HT       0.417000       1.00800           0
     17874 TIP3     3100     TIP3     OH2      OT      -0.834000       15.9994           0
     17875 TIP3     3100     TIP3     H1       HT       0.417000       1.00800           0
     17876 TIP3     3100     TIP3     H2       HT       0.417000       1.00800           0
     17877 TIP3     3101     TIP3     OH2      OT      -0.834000       15.9994           0
     17878 TIP3     3101     TIP3     H1       HT       0.417000       1.00800           0
     17879 TIP3     3101     TIP3     H2       HT       0.417000       1.00800           0
     17880 TIP3     3102     TIP3     OH2      OT      -0.834000       15.9994           0
     17881 TIP3     3102     TIP3     H1       HT       0.417000       1.00800           0
     17882 TIP3     3102     TIP3     H2       HT       0.417000       1.00800           0
     17883 TIP3     3103     TIP3     OH2      OT      -0.834000       15.9994           0
     17884 TIP3     3103     TIP3     H1       HT       0.417000       1.00800           0
     17885 TIP3     3103     TIP3     H2       HT       0.417000       1.00800           0
     17886 TIP3     3104     TIP3     OH2      OT      -0.834000       15.9994           0
     17887 TIP3     3104     TIP3     H1       HT       0.417000       1.00800           0
     17888 TIP3     3104     TIP3     H2       HT       0.417000       1.00800           0
     17889 TIP3     3105     TIP3     OH2      OT      -0.834000       15.9994           0
     17890 TIP3     3105     TIP3     H1       HT       0.417000       1.00800           0
     17891 TIP3     3105     TIP3     H2       HT       0.417000       1.00800           0
     17892 TIP3     3106     TIP3     OH2      OT      -0.834000       15.9994           0
     17893 TIP3     3106     TIP3     H1       HT       0.417000       1.00800           0
     17894 TIP3     3106     TIP3     H2       HT       0.417000       1.00800           0
     17895 TIP3     3107     TIP3     OH2      OT      -0.834000       15.9994           0
     17896 TIP3     3107     TIP3     H1       HT       0.417000       1.00800           0
     17897 TIP3     3107     TIP3     H2       HT       0.417000       1.00800           0
     17898 TIP3     3108     TIP3     OH2      OT      -0.834000       15.9994           0
     17899 TIP3     3108     TIP3     H1       HT       0.417000       1.00800           0
     17900 TIP3     3108     TIP3     H2       HT       0.417000       1.00800           0
     17901 TIP3     3109     TIP3     OH2      OT      -0.834000       15.9994           0
     17902 TIP3     3109     TIP3     H1       HT       0.417000       1.00800           0
     17903 TIP3     3109     TIP3     H2       HT       0.417000       1.00800           0
     17904 TIP3     3110     TIP3     OH2      OT      -0.834000       15.9994           0
     17905 TIP3     3110     TIP3     H1       HT       0.417000       1.00800           0
     17906 TIP3     3110     TIP3     H2       HT       0.417000       1.00800           0
     17907 TIP3     3111     TIP3     OH2      OT      -0.834000       15.9994           0
     17908 TIP3     3111     TIP3     H1       HT       0.417000       1.00800           0
     17909 TIP3     3111     TIP3     H2       HT       0.417000       1.00800           0
     17910 TIP3     3112     TIP3     OH2      OT      -0.834000       15.9994           0
     17911 TIP3     3112     TIP3     H1       HT       0.417000       1.00800           0
     17912 TIP3     3112     TIP3     H2       HT       0.417000       1.00800           0
     17913 TIP3     3113     TIP3     OH2      OT      -0.834000       15.9994           0
     17914 TIP3     3113     TIP3     H1       HT       0.417000       1.00800           0
     17915 TIP3     3113     TIP3     H2       HT       0.417000       1.00800           0
     17916 TIP3     3114     TIP3     OH2      OT      -0.834000       15.9994           0
     17917 TIP3     3114     TIP3     H1       HT       0.417000       1.00800           0
     17918 TIP3     3114     TIP3     H2       HT       0.417000       1.00800           0
     17919 TIP3     3115     TIP3     OH2      OT      -0.834000       15.9994           0
     17920 TIP3     3115     TIP3     H1       HT       0.417000       1.00800           0
     17921 TIP3     3115     TIP3     H2       HT       0.417000       1.00800           0
     17922 TIP3     3116     TIP3     OH2      OT      -0.834000       15.9994           0
     17923 TIP3     3116     TIP3     H1       HT       0.417000       1.00800           0
     17924 TIP3     3116     TIP3     H2       HT       0.417000       1.00800           0
     17925 TIP3     3117     TIP3     OH2      OT      -0.834000       15.9994           0
     17926 TIP3     3117     TIP3     H1       HT       0.417000       1.00800           0
     17927 TIP3     3117     TIP3     H2       HT       0.417000       1.00800           0
     17928 TIP3     3118     TIP3     OH2      OT      -0.834000       15.9994           0
     17929 TIP3     3118     TIP3     H1       HT       0.417000       1.00800           0
     17930 TIP3     3118     TIP3     H2       HT       0.417000       1.00800           0
     17931 TIP3     3119     TIP3     OH2      OT      -0.834000       15.9994           0
     17932 TIP3     3119     TIP3     H1       HT       0.417000       1.00800           0
     17933 TIP3     3119     TIP3     H2       HT       0.417000       1.00800           0
     17934 TIP3     3120     TIP3     OH2      OT      -0.834000       15.9994           0
     17935 TIP3     3120     TIP3     H1       HT       0.417000       1.00800           0
     17936 TIP3     3120     TIP3     H2       HT       0.417000       1.00800           0
     17937 TIP3     3121     TIP3     OH2      OT      -0.834000       15.9994           0
     17938 TIP3     3121     TIP3     H1       HT       0.417000       1.00800           0
     17939 TIP3     3121     TIP3     H2       HT       0.417000       1.00800           0
     17940 TIP3     3122     TIP3     OH2      OT      -0.834000       15.9994           0
     17941 TIP3     3122     TIP3     H1       HT       0.417000       1.00800           0
     17942 TIP3     3122     TIP3     H2       HT       0.417000       1.00800           0
     17943 TIP3     3123     TIP3     OH2      OT      -0.834000       15.9994           0
     17944 TIP3     3123     TIP3     H1       HT       0.417000       1.00800           0
     17945 TIP3     3123     TIP3     H2       HT       0.417000       1.00800           0
     17946 TIP3     3124     TIP3     OH2      OT      -0.834000       15.9994           0
     17947 TIP3     3124     TIP3     H1       HT       0.417000       1.00800           0
     17948 TIP3     3124     TIP3     H2       HT       0.417000       1.00800           0
     17949 TIP3     3125     TIP3     OH2      OT      -0.834000       15.9994           0
     17950 TIP3     3125     TIP3     H1       HT       0.417000       1.00800           0
     17951 TIP3     3125     TIP3     H2       HT       0.417000       1.00800           0
     17952 TIP3     3126     TIP3     OH2      OT      -0.834000       15.9994           0
     17953 TIP3     3126     TIP3     H1       HT       0.417000       1.00800           0
     17954 TIP3     3126     TIP3     H2       HT       0.417000       1.00800           0
     17955 TIP3     3127     TIP3     OH2      OT      -0.834000       15.9994           0
     17956 TIP3     3127     TIP3     H1       HT       0.417000       1.00800           0
     17957 TIP3     3127     TIP3     H2       HT       0.417000       1.00800           0
     17958 TIP3     3128     TIP3     OH2      OT      -0.834000       15.9994           0
     17959 TIP3     3128     TIP3     H1       HT       0.417000       1.00800           0
     17960 TIP3     3128     TIP3     H2       HT       0.417000       1.00800           0
     17961 TIP3     3129     TIP3     OH2      OT      -0.834000       15.9994           0
     17962 TIP3     3129     TIP3     H1       HT       0.417000       1.00800           0
     17963 TIP3     3129     TIP3     H2       HT       0.417000       1.00800           0
     17964 TIP3     3130     TIP3     OH2      OT      -0.834000       15.9994           0
     17965 TIP3     3130     TIP3     H1       HT       0.417000       1.00800           0
     17966 TIP3     3130     TIP3     H2       HT       0.417000       1.00800           0
     17967 TIP3     3131     TIP3     OH2      OT      -0.834000       15.9994           0
     17968 TIP3     3131     TIP3     H1       HT       0.417000       1.00800           0
     17969 TIP3     3131     TIP3     H2       HT       0.417000       1.00800           0
     17970 TIP3     3132     TIP3     OH2      OT      -0.834000       15.9994           0
     17971 TIP3     3132     TIP3     H1       HT       0.417000       1.00800           0
     17972 TIP3     3132     TIP3     H2       HT       0.417000       1.00800           0
     17973 TIP3     3133     TIP3     OH2      OT      -0.834000       15.9994           0
     17974 TIP3     3133     TIP3     H1       HT       0.417000       1.00800           0
     17975 TIP3     3133     TIP3     H2       HT       0.417000       1.00800           0
     17976 TIP3     3134     TIP3     OH2      OT      -0.834000       15.9994           0
     17977 TIP3     3134     TIP3     H1       HT       0.417000       1.00800           0
     17978 TIP3     3134     TIP3     H2       HT       0.417000       1.00800           0
     17979 TIP3     3135     TIP3     OH2      OT      -0.834000       15.9994           0
     17980 TIP3     3135     TIP3     H1       HT       0.417000       1.00800           0
     17981 TIP3     3135     TIP3     H2       HT       0.417000       1.00800           0
     17982 TIP3     3136     TIP3     OH2      OT      -0.834000       15.9994           0
     17983 TIP3     3136     TIP3     H1       HT       0.417000       1.00800           0
     17984 TIP3     3136     TIP3     H2       HT       0.417000       1.00800           0
     17985 TIP3     3137     TIP3     OH2      OT      -0.834000       15.9994           0
     17986 TIP3     3137     TIP3     H1       HT       0.417000       1.00800           0
     17987 TIP3     3137     TIP3     H2       HT       0.417000       1.00800           0
     17988 TIP3     3138     TIP3     OH2      OT      -0.834000       15.9994           0
     17989 TIP3     3138     TIP3     H1       HT       0.417000       1.00800           0
     17990 TIP3     3138     TIP3     H2       HT       0.417000       1.00800           0
     17991 TIP3     3139     TIP3     OH2      OT      -0.834000       15.9994           0
     17992 TIP3     3139     TIP3     H1       HT       0.417000       1.00800           0
     17993 TIP3     3139     TIP3     H2       HT       0.417000       1.00800           0
     17994 TIP3     3140     TIP3     OH2      OT      -0.834000       15.9994           0
     17995 TIP3     3140     TIP3     H1       HT       0.417000       1.00800           0
     17996 TIP3     3140     TIP3     H2       HT       0.417000       1.00800           0
     17997 TIP3     3141     TIP3     OH2      OT      -0.834000       15.9994           0
     17998 TIP3     3141     TIP3     H1       HT       0.417000       1.00800           0
     17999 TIP3     3141     TIP3     H2       HT       0.417000       1.00800           0
     18000 TIP3     3142     TIP3     OH2      OT      -0.834000       15.9994           0
     18001 TIP3     3142     TIP3     H1       HT       0.417000       1.00800           0
     18002 TIP3     3142     TIP3     H2       HT       0.417000       1.00800           0
     18003 TIP3     3143     TIP3     OH2      OT      -0.834000       15.9994           0
     18004 TIP3     3143     TIP3     H1       HT       0.417000       1.00800           0
     18005 TIP3     3143     TIP3     H2       HT       0.417000       1.00800           0
     18006 TIP3     3144     TIP3     OH2      OT      -0.834000       15.9994           0
     18007 TIP3     3144     TIP3     H1       HT       0.417000       1.00800           0
     18008 TIP3     3144     TIP3     H2       HT       0.417000       1.00800           0
     18009 TIP3     3145     TIP3     OH2      OT      -0.834000       15.9994           0
     18010 TIP3     3145     TIP3     H1       HT       0.417000       1.00800           0
     18011 TIP3     3145     TIP3     H2       HT       0.417000       1.00800           0
     18012 TIP3     3146     TIP3     OH2      OT      -0.834000       15.9994           0
     18013 TIP3     3146     TIP3     H1       HT       0.417000       1.00800           0
     18014 TIP3     3146     TIP3     H2       HT       0.417000       1.00800           0
     18015 TIP3     3147     TIP3     OH2      OT      -0.834000       15.9994           0
     18016 TIP3     3147     TIP3     H1       HT       0.417000       1.00800           0
     18017 TIP3     3147     TIP3     H2       HT       0.417000       1.00800           0
     18018 TIP3     3148     TIP3     OH2      OT      -0.834000       15.9994           0
     18019 TIP3     3148     TIP3     H1       HT       0.417000       1.00800           0
     18020 TIP3     3148     TIP3     H2       HT       0.417000       1.00800           0
     18021 TIP3     3149     TIP3     OH2      OT      -0.834000       15.9994           0
     18022 TIP3     3149     TIP3     H1       HT       0.417000       1.00800           0
     18023 TIP3     3149     TIP3     H2       HT       0.417000       1.00800           0
     18024 TIP3     3150     TIP3     OH2      OT      -0.834000       15.9994           0
     18025 TIP3     3150     TIP3     H1       HT       0.417000       1.00800           0
     18026 TIP3     3150     TIP3     H2       HT       0.417000       1.00800           0
     18027 TIP3     3151     TIP3     OH2      OT      -0.834000       15.9994           0
     18028 TIP3     3151     TIP3     H1       HT       0.417000       1.00800           0
     18029 TIP3     3151     TIP3     H2       HT       0.417000       1.00800           0
     18030 TIP3     3152     TIP3     OH2      OT      -0.834000       15.9994           0
     18031 TIP3     3152     TIP3     H1       HT       0.417000       1.00800           0
     18032 TIP3     3152     TIP3     H2       HT       0.417000       1.00800           0
     18033 TIP3     3153     TIP3     OH2      OT      -0.834000       15.9994           0
     18034 TIP3     3153     TIP3     H1       HT       0.417000       1.00800           0
     18035 TIP3     3153     TIP3     H2       HT       0.417000       1.00800           0
     18036 TIP3     3154     TIP3     OH2      OT      -0.834000       15.9994           0
     18037 TIP3     3154     TIP3     H1       HT       0.417000       1.00800           0
     18038 TIP3     3154     TIP3     H2       HT       0.417000       1.00800           0
     18039 TIP3     3155     TIP3     OH2      OT      -0.834000       15.9994           0
     18040 TIP3     3155     TIP3     H1       HT       0.417000       1.00800           0
     18041 TIP3     3155     TIP3     H2       HT       0.417000       1.00800           0
     18042 TIP3     3156     TIP3     OH2      OT      -0.834000       15.9994           0
     18043 TIP3     3156     TIP3     H1       HT       0.417000       1.00800           0
     18044 TIP3     3156     TIP3     H2       HT       0.417000       1.00800           0
     18045 TIP3     3157     TIP3     OH2      OT      -0.834000       15.9994           0
     18046 TIP3     3157     TIP3     H1       HT       0.417000       1.00800           0
     18047 TIP3     3157     TIP3     H2       HT       0.417000       1.00800           0
     18048 TIP3     3158     TIP3     OH2      OT      -0.834000       15.9994           0
     18049 TIP3     3158     TIP3     H1       HT       0.417000       1.00800           0
     18050 TIP3     3158     TIP3     H2       HT       0.417000       1.00800           0
     18051 TIP3     3159     TIP3     OH2      OT      -0.834000       15.9994           0
     18052 TIP3     3159     TIP3     H1       HT       0.417000       1.00800           0
     18053 TIP3     3159     TIP3     H2       HT       0.417000       1.00800           0
     18054 TIP3     3160     TIP3     OH2      OT      -0.834000       15.9994           0
     18055 TIP3     3160     TIP3     H1       HT       0.417000       1.00800           0
     18056 TIP3     3160     TIP3     H2       HT       0.417000       1.00800           0
     18057 TIP3     3161     TIP3     OH2      OT      -0.834000       15.9994           0
     18058 TIP3     3161     TIP3     H1       HT       0.417000       1.00800           0
     18059 TIP3     3161     TIP3     H2       HT       0.417000       1.00800           0
     18060 TIP3     3162     TIP3     OH2      OT      -0.834000       15.9994           0
     18061 TIP3     3162     TIP3     H1       HT       0.417000       1.00800           0
     18062 TIP3     3162     TIP3     H2       HT       0.417000       1.00800           0
     18063 TIP3     3163     TIP3     OH2      OT      -0.834000       15.9994           0
     18064 TIP3     3163     TIP3     H1       HT       0.417000       1.00800           0
     18065 TIP3     3163     TIP3     H2       HT       0.417000       1.00800           0
     18066 TIP3     3164     TIP3     OH2      OT      -0.834000       15.9994           0
     18067 TIP3     3164     TIP3     H1       HT       0.417000       1.00800           0
     18068 TIP3     3164     TIP3     H2       HT       0.417000       1.00800           0
     18069 TIP3     3165     TIP3     OH2      OT      -0.834000       15.9994           0
     18070 TIP3     3165     TIP3     H1       HT       0.417000       1.00800           0
     18071 TIP3     3165     TIP3     H2       HT       0.417000       1.00800           0
     18072 TIP3     3166     TIP3     OH2      OT      -0.834000       15.9994           0
     18073 TIP3     3166     TIP3     H1       HT       0.417000       1.00800           0
     18074 TIP3     3166     TIP3     H2       HT       0.417000       1.00800           0
     18075 TIP3     3167     TIP3     OH2      OT      -0.834000       15.9994           0
     18076 TIP3     3167     TIP3     H1       HT       0.417000       1.00800           0
     18077 TIP3     3167     TIP3     H2       HT       0.417000       1.00800           0
     18078 TIP3     3168     TIP3     OH2      OT      -0.834000       15.9994           0
     18079 TIP3     3168     TIP3     H1       HT       0.417000       1.00800           0
     18080 TIP3     3168     TIP3     H2       HT       0.417000       1.00800           0
     18081 TIP3     3169     TIP3     OH2      OT      -0.834000       15.9994           0
     18082 TIP3     3169     TIP3     H1       HT       0.417000       1.00800           0
     18083 TIP3     3169     TIP3     H2       HT       0.417000       1.00800           0
     18084 TIP3     3170     TIP3     OH2      OT      -0.834000       15.9994           0
     18085 TIP3     3170     TIP3     H1       HT       0.417000       1.00800           0
     18086 TIP3     3170     TIP3     H2       HT       0.417000       1.00800           0
     18087 TIP3     3171     TIP3     OH2      OT      -0.834000       15.9994           0
     18088 TIP3     3171     TIP3     H1       HT       0.417000       1.00800           0
     18089 TIP3     3171     TIP3     H2       HT       0.417000       1.00800           0
     18090 TIP3     3172     TIP3     OH2      OT      -0.834000       15.9994           0
     18091 TIP3     3172     TIP3     H1       HT       0.417000       1.00800           0
     18092 TIP3     3172     TIP3     H2       HT       0.417000       1.00800           0
     18093 TIP3     3173     TIP3     OH2      OT      -0.834000       15.9994           0
     18094 TIP3     3173     TIP3     H1       HT       0.417000       1.00800           0
     18095 TIP3     3173     TIP3     H2       HT       0.417000       1.00800           0
     18096 TIP3     3174     TIP3     OH2      OT      -0.834000       15.9994           0
     18097 TIP3     3174     TIP3     H1       HT       0.417000       1.00800           0
     18098 TIP3     3174     TIP3     H2       HT       0.417000       1.00800           0
     18099 TIP3     3175     TIP3     OH2      OT      -0.834000       15.9994           0
     18100 TIP3     3175     TIP3     H1       HT       0.417000       1.00800           0
     18101 TIP3     3175     TIP3     H2       HT       0.417000       1.00800           0
     18102 TIP3     3176     TIP3     OH2      OT      -0.834000       15.9994           0
     18103 TIP3     3176     TIP3     H1       HT       0.417000       1.00800           0
     18104 TIP3     3176     TIP3     H2       HT       0.417000       1.00800           0
     18105 TIP3     3177     TIP3     OH2      OT      -0.834000       15.9994           0
     18106 TIP3     3177     TIP3     H1       HT       0.417000       1.00800           0
     18107 TIP3     3177     TIP3     H2       HT       0.417000       1.00800           0
     18108 TIP3     3178     TIP3     OH2      OT      -0.834000       15.9994           0
     18109 TIP3     3178     TIP3     H1       HT       0.417000       1.00800           0
     18110 TIP3     3178     TIP3     H2       HT       0.417000       1.00800           0
     18111 TIP3     3179     TIP3     OH2      OT      -0.834000       15.9994           0
     18112 TIP3     3179     TIP3     H1       HT       0.417000       1.00800           0
     18113 TIP3     3179     TIP3     H2       HT       0.417000       1.00800           0
     18114 TIP3     3180     TIP3     OH2      OT      -0.834000       15.9994           0
     18115 TIP3     3180     TIP3     H1       HT       0.417000       1.00800           0
     18116 TIP3     3180     TIP3     H2       HT       0.417000       1.00800           0
     18117 TIP3     3181     TIP3     OH2      OT      -0.834000       15.9994           0
     18118 TIP3     3181     TIP3     H1       HT       0.417000       1.00800           0
     18119 TIP3     3181     TIP3     H2       HT       0.417000       1.00800           0
     18120 TIP3     3182     TIP3     OH2      OT      -0.834000       15.9994           0
     18121 TIP3     3182     TIP3     H1       HT       0.417000       1.00800           0
     18122 TIP3     3182     TIP3     H2       HT       0.417000       1.00800           0
     18123 TIP3     3183     TIP3     OH2      OT      -0.834000       15.9994           0
     18124 TIP3     3183     TIP3     H1       HT       0.417000       1.00800           0
     18125 TIP3     3183     TIP3     H2       HT       0.417000       1.00800           0
     18126 TIP3     3184     TIP3     OH2      OT      -0.834000       15.9994           0
     18127 TIP3     3184     TIP3     H1       HT       0.417000       1.00800           0
     18128 TIP3     3184     TIP3     H2       HT       0.417000       1.00800           0
     18129 TIP3     3185     TIP3     OH2      OT      -0.834000       15.9994           0
     18130 TIP3     3185     TIP3     H1       HT       0.417000       1.00800           0
     18131 TIP3     3185     TIP3     H2       HT       0.417000       1.00800           0
     18132 TIP3     3186     TIP3     OH2      OT      -0.834000       15.9994           0
     18133 TIP3     3186     TIP3     H1       HT       0.417000       1.00800           0
     18134 TIP3     3186     TIP3     H2       HT       0.417000       1.00800           0
     18135 TIP3     3187     TIP3     OH2      OT      -0.834000       15.9994           0
     18136 TIP3     3187     TIP3     H1       HT       0.417000       1.00800           0
     18137 TIP3     3187     TIP3     H2       HT       0.417000       1.00800           0
     18138 TIP3     3188     TIP3     OH2      OT      -0.834000       15.9994           0
     18139 TIP3     3188     TIP3     H1       HT       0.417000       1.00800           0
     18140 TIP3     3188     TIP3     H2       HT       0.417000       1.00800           0
     18141 TIP3     3189     TIP3     OH2      OT      -0.834000       15.9994           0
     18142 TIP3     3189     TIP3     H1       HT       0.417000       1.00800           0
     18143 TIP3     3189     TIP3     H2       HT       0.417000       1.00800           0
     18144 TIP3     3190     TIP3     OH2      OT      -0.834000       15.9994           0
     18145 TIP3     3190     TIP3     H1       HT       0.417000       1.00800           0
     18146 TIP3     3190     TIP3     H2       HT       0.417000       1.00800           0
     18147 TIP3     3191     TIP3     OH2      OT      -0.834000       15.9994           0
     18148 TIP3     3191     TIP3     H1       HT       0.417000       1.00800           0
     18149 TIP3     3191     TIP3     H2       HT       0.417000       1.00800           0
     18150 TIP3     3192     TIP3     OH2      OT      -0.834000       15.9994           0
     18151 TIP3     3192     TIP3     H1       HT       0.417000       1.00800           0
     18152 TIP3     3192     TIP3     H2       HT       0.417000       1.00800           0
     18153 TIP3     3193     TIP3     OH2      OT      -0.834000       15.9994           0
     18154 TIP3     3193     TIP3     H1       HT       0.417000       1.00800           0
     18155 TIP3     3193     TIP3     H2       HT       0.417000       1.00800           0
     18156 TIP3     3194     TIP3     OH2      OT      -0.834000       15.9994           0
     18157 TIP3     3194     TIP3     H1       HT       0.417000       1.00800           0
     18158 TIP3     3194     TIP3     H2       HT       0.417000       1.00800           0
     18159 TIP3     3195     TIP3     OH2      OT      -0.834000       15.9994           0
     18160 TIP3     3195     TIP3     H1       HT       0.417000       1.00800           0
     18161 TIP3     3195     TIP3     H2       HT       0.417000       1.00800           0
     18162 TIP3     3196     TIP3     OH2      OT      -0.834000       15.9994           0
     18163 TIP3     3196     TIP3     H1       HT       0.417000       1.00800           0
     18164 TIP3     3196     TIP3     H2       HT       0.417000       1.00800           0
     18165 TIP3     3197     TIP3     OH2      OT      -0.834000       15.9994           0
     18166 TIP3     3197     TIP3     H1       HT       0.417000       1.00800           0
     18167 TIP3     3197     TIP3     H2       HT       0.417000       1.00800           0
     18168 TIP3     3198     TIP3     OH2      OT      -0.834000       15.9994           0
     18169 TIP3     3198     TIP3     H1       HT       0.417000       1.00800           0
     18170 TIP3     3198     TIP3     H2       HT       0.417000       1.00800           0
     18171 TIP3     3199     TIP3     OH2      OT      -0.834000       15.9994           0
     18172 TIP3     3199     TIP3     H1       HT       0.417000       1.00800           0
     18173 TIP3     3199     TIP3     H2       HT       0.417000       1.00800           0
     18174 TIP3     3200     TIP3     OH2      OT      -0.834000       15.9994           0
     18175 TIP3     3200     TIP3     H1       HT       0.417000       1.00800           0
     18176 TIP3     3200     TIP3     H2       HT       0.417000       1.00800           0
     18177 TIP3     3201     TIP3     OH2      OT      -0.834000       15.9994           0
     18178 TIP3     3201     TIP3     H1       HT       0.417000       1.00800           0
     18179 TIP3     3201     TIP3     H2       HT       0.417000       1.00800           0
     18180 TIP3     3202     TIP3     OH2      OT      -0.834000       15.9994           0
     18181 TIP3     3202     TIP3     H1       HT       0.417000       1.00800           0
     18182 TIP3     3202     TIP3     H2       HT       0.417000       1.00800           0
     18183 TIP3     3203     TIP3     OH2      OT      -0.834000       15.9994           0
     18184 TIP3     3203     TIP3     H1       HT       0.417000       1.00800           0
     18185 TIP3     3203     TIP3     H2       HT       0.417000       1.00800           0
     18186 TIP3     3204     TIP3     OH2      OT      -0.834000       15.9994           0
     18187 TIP3     3204     TIP3     H1       HT       0.417000       1.00800           0
     18188 TIP3     3204     TIP3     H2       HT       0.417000       1.00800           0
     18189 TIP3     3205     TIP3     OH2      OT      -0.834000       15.9994           0
     18190 TIP3     3205     TIP3     H1       HT       0.417000       1.00800           0
     18191 TIP3     3205     TIP3     H2       HT       0.417000       1.00800           0
     18192 TIP3     3206     TIP3     OH2      OT      -0.834000       15.9994           0
     18193 TIP3     3206     TIP3     H1       HT       0.417000       1.00800           0
     18194 TIP3     3206     TIP3     H2       HT       0.417000       1.00800           0
     18195 TIP3     3207     TIP3     OH2      OT      -0.834000       15.9994           0
     18196 TIP3     3207     TIP3     H1       HT       0.417000       1.00800           0
     18197 TIP3     3207     TIP3     H2       HT       0.417000       1.00800           0
     18198 TIP3     3208     TIP3     OH2      OT      -0.834000       15.9994           0
     18199 TIP3     3208     TIP3     H1       HT       0.417000       1.00800           0
     18200 TIP3     3208     TIP3     H2       HT       0.417000       1.00800           0
     18201 TIP3     3209     TIP3     OH2      OT      -0.834000       15.9994           0
     18202 TIP3     3209     TIP3     H1       HT       0.417000       1.00800           0
     18203 TIP3     3209     TIP3     H2       HT       0.417000       1.00800           0
     18204 TIP3     3210     TIP3     OH2      OT      -0.834000       15.9994           0
     18205 TIP3     3210     TIP3     H1       HT       0.417000       1.00800           0
     18206 TIP3     3210     TIP3     H2       HT       0.417000       1.00800           0
     18207 TIP3     3211     TIP3     OH2      OT      -0.834000       15.9994           0
     18208 TIP3     3211     TIP3     H1       HT       0.417000       1.00800           0
     18209 TIP3     3211     TIP3     H2       HT       0.417000       1.00800           0
     18210 TIP3     3212     TIP3     OH2      OT      -0.834000       15.9994           0
     18211 TIP3     3212     TIP3     H1       HT       0.417000       1.00800           0
     18212 TIP3     3212     TIP3     H2       HT       0.417000       1.00800           0
     18213 TIP3     3213     TIP3     OH2      OT      -0.834000       15.9994           0
     18214 TIP3     3213     TIP3     H1       HT       0.417000       1.00800           0
     18215 TIP3     3213     TIP3     H2       HT       0.417000       1.00800           0
     18216 TIP3     3214     TIP3     OH2      OT      -0.834000       15.9994           0
     18217 TIP3     3214     TIP3     H1       HT       0.417000       1.00800           0
     18218 TIP3     3214     TIP3     H2       HT       0.417000       1.00800           0
     18219 TIP3     3215     TIP3     OH2      OT      -0.834000       15.9994           0
     18220 TIP3     3215     TIP3     H1       HT       0.417000       1.00800           0
     18221 TIP3     3215     TIP3     H2       HT       0.417000       1.00800           0
     18222 TIP3     3216     TIP3     OH2      OT      -0.834000       15.9994           0
     18223 TIP3     3216     TIP3     H1       HT       0.417000       1.00800           0
     18224 TIP3     3216     TIP3     H2       HT       0.417000       1.00800           0
     18225 TIP3     3217     TIP3     OH2      OT      -0.834000       15.9994           0
     18226 TIP3     3217     TIP3     H1       HT       0.417000       1.00800           0
     18227 TIP3     3217     TIP3     H2       HT       0.417000       1.00800           0
     18228 TIP3     3218     TIP3     OH2      OT      -0.834000       15.9994           0
     18229 TIP3     3218     TIP3     H1       HT       0.417000       1.00800           0
     18230 TIP3     3218     TIP3     H2       HT       0.417000       1.00800           0
     18231 TIP3     3219     TIP3     OH2      OT      -0.834000       15.9994           0
     18232 TIP3     3219     TIP3     H1       HT       0.417000       1.00800           0
     18233 TIP3     3219     TIP3     H2       HT       0.417000       1.00800           0
     18234 TIP3     3220     TIP3     OH2      OT      -0.834000       15.9994           0
     18235 TIP3     3220     TIP3     H1       HT       0.417000       1.00800           0
     18236 TIP3     3220     TIP3     H2       HT       0.417000       1.00800           0
     18237 TIP3     3221     TIP3     OH2      OT      -0.834000       15.9994           0
     18238 TIP3     3221     TIP3     H1       HT       0.417000       1.00800           0
     18239 TIP3     3221     TIP3     H2       HT       0.417000       1.00800           0
     18240 TIP3     3222     TIP3     OH2      OT      -0.834000       15.9994           0
     18241 TIP3     3222     TIP3     H1       HT       0.417000       1.00800           0
     18242 TIP3     3222     TIP3     H2       HT       0.417000       1.00800           0
     18243 TIP3     3223     TIP3     OH2      OT      -0.834000       15.9994           0
     18244 TIP3     3223     TIP3     H1       HT       0.417000       1.00800           0
     18245 TIP3     3223     TIP3     H2       HT       0.417000       1.00800           0
     18246 TIP3     3224     TIP3     OH2      OT      -0.834000       15.9994           0
     18247 TIP3     3224     TIP3     H1       HT       0.417000       1.00800           0
     18248 TIP3     3224     TIP3     H2       HT       0.417000       1.00800           0
     18249 TIP3     3225     TIP3     OH2      OT      -0.834000       15.9994           0
     18250 TIP3     3225     TIP3     H1       HT       0.417000       1.00800           0
     18251 TIP3     3225     TIP3     H2       HT       0.417000       1.00800           0
     18252 TIP3     3226     TIP3     OH2      OT      -0.834000       15.9994           0
     18253 TIP3     3226     TIP3     H1       HT       0.417000       1.00800           0
     18254 TIP3     3226     TIP3     H2       HT       0.417000       1.00800           0
     18255 TIP3     3227     TIP3     OH2      OT      -0.834000       15.9994           0
     18256 TIP3     3227     TIP3     H1       HT       0.417000       1.00800           0
     18257 TIP3     3227     TIP3     H2       HT       0.417000       1.00800           0
     18258 TIP3     3228     TIP3     OH2      OT      -0.834000       15.9994           0
     18259 TIP3     3228     TIP3     H1       HT       0.417000       1.00800           0
     18260 TIP3     3228     TIP3     H2       HT       0.417000       1.00800           0
     18261 TIP3     3229     TIP3     OH2      OT      -0.834000       15.9994           0
     18262 TIP3     3229     TIP3     H1       HT       0.417000       1.00800           0
     18263 TIP3     3229     TIP3     H2       HT       0.417000       1.00800           0
     18264 TIP3     3230     TIP3     OH2      OT      -0.834000       15.9994           0
     18265 TIP3     3230     TIP3     H1       HT       0.417000       1.00800           0
     18266 TIP3     3230     TIP3     H2       HT       0.417000       1.00800           0
     18267 TIP3     3231     TIP3     OH2      OT      -0.834000       15.9994           0
     18268 TIP3     3231     TIP3     H1       HT       0.417000       1.00800           0
     18269 TIP3     3231     TIP3     H2       HT       0.417000       1.00800           0
     18270 TIP3     3232     TIP3     OH2      OT      -0.834000       15.9994           0
     18271 TIP3     3232     TIP3     H1       HT       0.417000       1.00800           0
     18272 TIP3     3232     TIP3     H2       HT       0.417000       1.00800           0
     18273 TIP3     3233     TIP3     OH2      OT      -0.834000       15.9994           0
     18274 TIP3     3233     TIP3     H1       HT       0.417000       1.00800           0
     18275 TIP3     3233     TIP3     H2       HT       0.417000       1.00800           0
     18276 TIP3     3234     TIP3     OH2      OT      -0.834000       15.9994           0
     18277 TIP3     3234     TIP3     H1       HT       0.417000       1.00800           0
     18278 TIP3     3234     TIP3     H2       HT       0.417000       1.00800           0
     18279 TIP3     3235     TIP3     OH2      OT      -0.834000       15.9994           0
     18280 TIP3     3235     TIP3     H1       HT       0.417000       1.00800           0
     18281 TIP3     3235     TIP3     H2       HT       0.417000       1.00800           0
     18282 TIP3     3236     TIP3     OH2      OT      -0.834000       15.9994           0
     18283 TIP3     3236     TIP3     H1       HT       0.417000       1.00800           0
     18284 TIP3     3236     TIP3     H2       HT       0.417000       1.00800           0
     18285 TIP3     3237     TIP3     OH2      OT      -0.834000       15.9994           0
     18286 TIP3     3237     TIP3     H1       HT       0.417000       1.00800           0
     18287 TIP3     3237     TIP3     H2       HT       0.417000       1.00800           0
     18288 TIP3     3238     TIP3     OH2      OT      -0.834000       15.9994           0
     18289 TIP3     3238     TIP3     H1       HT       0.417000       1.00800           0
     18290 TIP3     3238     TIP3     H2       HT       0.417000       1.00800           0
     18291 TIP3     3239     TIP3     OH2      OT      -0.834000       15.9994           0
     18292 TIP3     3239     TIP3     H1       HT       0.417000       1.00800           0
     18293 TIP3     3239     TIP3     H2       HT       0.417000       1.00800           0
     18294 TIP3     3240     TIP3     OH2      OT      -0.834000       15.9994           0
     18295 TIP3     3240     TIP3     H1       HT       0.417000       1.00800           0
     18296 TIP3     3240     TIP3     H2       HT       0.417000       1.00800           0
     18297 TIP3     3241     TIP3     OH2      OT      -0.834000       15.9994           0
     18298 TIP3     3241     TIP3     H1       HT       0.417000       1.00800           0
     18299 TIP3     3241     TIP3     H2       HT       0.417000       1.00800           0
     18300 TIP3     3242     TIP3     OH2      OT      -0.834000       15.9994           0
     18301 TIP3     3242     TIP3     H1       HT       0.417000       1.00800           0
     18302 TIP3     3242     TIP3     H2       HT       0.417000       1.00800           0
     18303 TIP3     3243     TIP3     OH2      OT      -0.834000       15.9994           0
     18304 TIP3     3243     TIP3     H1       HT       0.417000       1.00800           0
     18305 TIP3     3243     TIP3     H2       HT       0.417000       1.00800           0
     18306 TIP3     3244     TIP3     OH2      OT      -0.834000       15.9994           0
     18307 TIP3     3244     TIP3     H1       HT       0.417000       1.00800           0
     18308 TIP3     3244     TIP3     H2       HT       0.417000       1.00800           0
     18309 TIP3     3245     TIP3     OH2      OT      -0.834000       15.9994           0
     18310 TIP3     3245     TIP3     H1       HT       0.417000       1.00800           0
     18311 TIP3     3245     TIP3     H2       HT       0.417000       1.00800           0
     18312 TIP3     3246     TIP3     OH2      OT      -0.834000       15.9994           0
     18313 TIP3     3246     TIP3     H1       HT       0.417000       1.00800           0
     18314 TIP3     3246     TIP3     H2       HT       0.417000       1.00800           0
     18315 TIP3     3247     TIP3     OH2      OT      -0.834000       15.9994           0
     18316 TIP3     3247     TIP3     H1       HT       0.417000       1.00800           0
     18317 TIP3     3247     TIP3     H2       HT       0.417000       1.00800           0
     18318 TIP3     3248     TIP3     OH2      OT      -0.834000       15.9994           0
     18319 TIP3     3248     TIP3     H1       HT       0.417000       1.00800           0
     18320 TIP3     3248     TIP3     H2       HT       0.417000       1.00800           0
     18321 TIP3     3249     TIP3     OH2      OT      -0.834000       15.9994           0
     18322 TIP3     3249     TIP3     H1       HT       0.417000       1.00800           0
     18323 TIP3     3249     TIP3     H2       HT       0.417000       1.00800           0
     18324 TIP3     3250     TIP3     OH2      OT      -0.834000       15.9994           0
     18325 TIP3     3250     TIP3     H1       HT       0.417000       1.00800           0
     18326 TIP3     3250     TIP3     H2       HT       0.417000       1.00800           0
     18327 TIP3     3251     TIP3     OH2      OT      -0.834000       15.9994           0
     18328 TIP3     3251     TIP3     H1       HT       0.417000       1.00800           0
     18329 TIP3     3251     TIP3     H2       HT       0.417000       1.00800           0
     18330 TIP3     3252     TIP3     OH2      OT      -0.834000       15.9994           0
     18331 TIP3     3252     TIP3     H1       HT       0.417000       1.00800           0
     18332 TIP3     3252     TIP3     H2       HT       0.417000       1.00800           0
     18333 TIP3     3253     TIP3     OH2      OT      -0.834000       15.9994           0
     18334 TIP3     3253     TIP3     H1       HT       0.417000       1.00800           0
     18335 TIP3     3253     TIP3     H2       HT       0.417000       1.00800           0
     18336 TIP3     3254     TIP3     OH2      OT      -0.834000       15.9994           0
     18337 TIP3     3254     TIP3     H1       HT       0.417000       1.00800           0
     18338 TIP3     3254     TIP3     H2       HT       0.417000       1.00800           0
     18339 TIP3     3255     TIP3     OH2      OT      -0.834000       15.9994           0
     18340 TIP3     3255     TIP3     H1       HT       0.417000       1.00800           0
     18341 TIP3     3255     TIP3     H2       HT       0.417000       1.00800           0
     18342 TIP3     3256     TIP3     OH2      OT      -0.834000       15.9994           0
     18343 TIP3     3256     TIP3     H1       HT       0.417000       1.00800           0
     18344 TIP3     3256     TIP3     H2       HT       0.417000       1.00800           0
     18345 TIP3     3257     TIP3     OH2      OT      -0.834000       15.9994           0
     18346 TIP3     3257     TIP3     H1       HT       0.417000       1.00800           0
     18347 TIP3     3257     TIP3     H2       HT       0.417000       1.00800           0
     18348 TIP3     3258     TIP3     OH2      OT      -0.834000       15.9994           0
     18349 TIP3     3258     TIP3     H1       HT       0.417000       1.00800           0
     18350 TIP3     3258     TIP3     H2       HT       0.417000       1.00800           0
     18351 TIP3     3259     TIP3     OH2      OT      -0.834000       15.9994           0
     18352 TIP3     3259     TIP3     H1       HT       0.417000       1.00800           0
     18353 TIP3     3259     TIP3     H2       HT       0.417000       1.00800           0
     18354 TIP3     3260     TIP3     OH2      OT      -0.834000       15.9994           0
     18355 TIP3     3260     TIP3     H1       HT       0.417000       1.00800           0
     18356 TIP3     3260     TIP3     H2       HT       0.417000       1.00800           0
     18357 TIP3     3261     TIP3     OH2      OT      -0.834000       15.9994           0
     18358 TIP3     3261     TIP3     H1       HT       0.417000       1.00800           0
     18359 TIP3     3261     TIP3     H2       HT       0.417000       1.00800           0
     18360 TIP3     3262     TIP3     OH2      OT      -0.834000       15.9994           0
     18361 TIP3     3262     TIP3     H1       HT       0.417000       1.00800           0
     18362 TIP3     3262     TIP3     H2       HT       0.417000       1.00800           0
     18363 TIP3     3263     TIP3     OH2      OT      -0.834000       15.9994           0
     18364 TIP3     3263     TIP3     H1       HT       0.417000       1.00800           0
     18365 TIP3     3263     TIP3     H2       HT       0.417000       1.00800           0
     18366 TIP3     3264     TIP3     OH2      OT      -0.834000       15.9994           0
     18367 TIP3     3264     TIP3     H1       HT       0.417000       1.00800           0
     18368 TIP3     3264     TIP3     H2       HT       0.417000       1.00800           0
     18369 TIP3     3265     TIP3     OH2      OT      -0.834000       15.9994           0
     18370 TIP3     3265     TIP3     H1       HT       0.417000       1.00800           0
     18371 TIP3     3265     TIP3     H2       HT       0.417000       1.00800           0
     18372 TIP3     3266     TIP3     OH2      OT      -0.834000       15.9994           0
     18373 TIP3     3266     TIP3     H1       HT       0.417000       1.00800           0
     18374 TIP3     3266     TIP3     H2       HT       0.417000       1.00800           0
     18375 TIP3     3267     TIP3     OH2      OT      -0.834000       15.9994           0
     18376 TIP3     3267     TIP3     H1       HT       0.417000       1.00800           0
     18377 TIP3     3267     TIP3     H2       HT       0.417000       1.00800           0
     18378 TIP3     3268     TIP3     OH2      OT      -0.834000       15.9994           0
     18379 TIP3     3268     TIP3     H1       HT       0.417000       1.00800           0
     18380 TIP3     3268     TIP3     H2       HT       0.417000       1.00800           0
     18381 TIP3     3269     TIP3     OH2      OT      -0.834000       15.9994           0
     18382 TIP3     3269     TIP3     H1       HT       0.417000       1.00800           0
     18383 TIP3     3269     TIP3     H2       HT       0.417000       1.00800           0
     18384 TIP3     3270     TIP3     OH2      OT      -0.834000       15.9994           0
     18385 TIP3     3270     TIP3     H1       HT       0.417000       1.00800           0
     18386 TIP3     3270     TIP3     H2       HT       0.417000       1.00800           0
     18387 TIP3     3271     TIP3     OH2      OT      -0.834000       15.9994           0
     18388 TIP3     3271     TIP3     H1       HT       0.417000       1.00800           0
     18389 TIP3     3271     TIP3     H2       HT       0.417000       1.00800           0
     18390 TIP3     3272     TIP3     OH2      OT      -0.834000       15.9994           0
     18391 TIP3     3272     TIP3     H1       HT       0.417000       1.00800           0
     18392 TIP3     3272     TIP3     H2       HT       0.417000       1.00800           0
     18393 TIP3     3273     TIP3     OH2      OT      -0.834000       15.9994           0
     18394 TIP3     3273     TIP3     H1       HT       0.417000       1.00800           0
     18395 TIP3     3273     TIP3     H2       HT       0.417000       1.00800           0
     18396 TIP3     3274     TIP3     OH2      OT      -0.834000       15.9994           0
     18397 TIP3     3274     TIP3     H1       HT       0.417000       1.00800           0
     18398 TIP3     3274     TIP3     H2       HT       0.417000       1.00800           0
     18399 TIP3     3275     TIP3     OH2      OT      -0.834000       15.9994           0
     18400 TIP3     3275     TIP3     H1       HT       0.417000       1.00800           0
     18401 TIP3     3275     TIP3     H2       HT       0.417000       1.00800           0
     18402 TIP3     3276     TIP3     OH2      OT      -0.834000       15.9994           0
     18403 TIP3     3276     TIP3     H1       HT       0.417000       1.00800           0
     18404 TIP3     3276     TIP3     H2       HT       0.417000       1.00800           0
     18405 TIP3     3277     TIP3     OH2      OT      -0.834000       15.9994           0
     18406 TIP3     3277     TIP3     H1       HT       0.417000       1.00800           0
     18407 TIP3     3277     TIP3     H2       HT       0.417000       1.00800           0
     18408 TIP3     3278     TIP3     OH2      OT      -0.834000       15.9994           0
     18409 TIP3     3278     TIP3     H1       HT       0.417000       1.00800           0
     18410 TIP3     3278     TIP3     H2       HT       0.417000       1.00800           0
     18411 TIP3     3279     TIP3     OH2      OT      -0.834000       15.9994           0
     18412 TIP3     3279     TIP3     H1       HT       0.417000       1.00800           0
     18413 TIP3     3279     TIP3     H2       HT       0.417000       1.00800           0
     18414 TIP3     3280     TIP3     OH2      OT      -0.834000       15.9994           0
     18415 TIP3     3280     TIP3     H1       HT       0.417000       1.00800           0
     18416 TIP3     3280     TIP3     H2       HT       0.417000       1.00800           0
     18417 TIP3     3281     TIP3     OH2      OT      -0.834000       15.9994           0
     18418 TIP3     3281     TIP3     H1       HT       0.417000       1.00800           0
     18419 TIP3     3281     TIP3     H2       HT       0.417000       1.00800           0
     18420 TIP3     3282     TIP3     OH2      OT      -0.834000       15.9994           0
     18421 TIP3     3282     TIP3     H1       HT       0.417000       1.00800           0
     18422 TIP3     3282     TIP3     H2       HT       0.417000       1.00800           0
     18423 TIP3     3283     TIP3     OH2      OT      -0.834000       15.9994           0
     18424 TIP3     3283     TIP3     H1       HT       0.417000       1.00800           0
     18425 TIP3     3283     TIP3     H2       HT       0.417000       1.00800           0
     18426 TIP3     3284     TIP3     OH2      OT      -0.834000       15.9994           0
     18427 TIP3     3284     TIP3     H1       HT       0.417000       1.00800           0
     18428 TIP3     3284     TIP3     H2       HT       0.417000       1.00800           0
     18429 TIP3     3285     TIP3     OH2      OT      -0.834000       15.9994           0
     18430 TIP3     3285     TIP3     H1       HT       0.417000       1.00800           0
     18431 TIP3     3285     TIP3     H2       HT       0.417000       1.00800           0
     18432 TIP3     3286     TIP3     OH2      OT      -0.834000       15.9994           0
     18433 TIP3     3286     TIP3     H1       HT       0.417000       1.00800           0
     18434 TIP3     3286     TIP3     H2       HT       0.417000       1.00800           0
     18435 TIP3     3287     TIP3     OH2      OT      -0.834000       15.9994           0
     18436 TIP3     3287     TIP3     H1       HT       0.417000       1.00800           0
     18437 TIP3     3287     TIP3     H2       HT       0.417000       1.00800           0
     18438 TIP3     3288     TIP3     OH2      OT      -0.834000       15.9994           0
     18439 TIP3     3288     TIP3     H1       HT       0.417000       1.00800           0
     18440 TIP3     3288     TIP3     H2       HT       0.417000       1.00800           0
     18441 TIP3     3289     TIP3     OH2      OT      -0.834000       15.9994           0
     18442 TIP3     3289     TIP3     H1       HT       0.417000       1.00800           0
     18443 TIP3     3289     TIP3     H2       HT       0.417000       1.00800           0
     18444 TIP3     3290     TIP3     OH2      OT      -0.834000       15.9994           0
     18445 TIP3     3290     TIP3     H1       HT       0.417000       1.00800           0
     18446 TIP3     3290     TIP3     H2       HT       0.417000       1.00800           0
     18447 TIP3     3291     TIP3     OH2      OT      -0.834000       15.9994           0
     18448 TIP3     3291     TIP3     H1       HT       0.417000       1.00800           0
     18449 TIP3     3291     TIP3     H2       HT       0.417000       1.00800           0
     18450 TIP3     3292     TIP3     OH2      OT      -0.834000       15.9994           0
     18451 TIP3     3292     TIP3     H1       HT       0.417000       1.00800           0
     18452 TIP3     3292     TIP3     H2       HT       0.417000       1.00800           0
     18453 TIP3     3293     TIP3     OH2      OT      -0.834000       15.9994           0
     18454 TIP3     3293     TIP3     H1       HT       0.417000       1.00800           0
     18455 TIP3     3293     TIP3     H2       HT       0.417000       1.00800           0
     18456 TIP3     3294     TIP3     OH2      OT      -0.834000       15.9994           0
     18457 TIP3     3294     TIP3     H1       HT       0.417000       1.00800           0
     18458 TIP3     3294     TIP3     H2       HT       0.417000       1.00800           0
     18459 TIP3     3295     TIP3     OH2      OT      -0.834000       15.9994           0
     18460 TIP3     3295     TIP3     H1       HT       0.417000       1.00800           0
     18461 TIP3     3295     TIP3     H2       HT       0.417000       1.00800           0
     18462 TIP3     3296     TIP3     OH2      OT      -0.834000       15.9994           0
     18463 TIP3     3296     TIP3     H1       HT       0.417000       1.00800           0
     18464 TIP3     3296     TIP3     H2       HT       0.417000       1.00800           0
     18465 TIP3     3297     TIP3     OH2      OT      -0.834000       15.9994           0
     18466 TIP3     3297     TIP3     H1       HT       0.417000       1.00800           0
     18467 TIP3     3297     TIP3     H2       HT       0.417000       1.00800           0
     18468 TIP3     3298     TIP3     OH2      OT      -0.834000       15.9994           0
     18469 TIP3     3298     TIP3     H1       HT       0.417000       1.00800           0
     18470 TIP3     3298     TIP3     H2       HT       0.417000       1.00800           0
     18471 TIP3     3299     TIP3     OH2      OT      -0.834000       15.9994           0
     18472 TIP3     3299     TIP3     H1       HT       0.417000       1.00800           0
     18473 TIP3     3299     TIP3     H2       HT       0.417000       1.00800           0
     18474 TIP3     3300     TIP3     OH2      OT      -0.834000       15.9994           0
     18475 TIP3     3300     TIP3     H1       HT       0.417000       1.00800           0
     18476 TIP3     3300     TIP3     H2       HT       0.417000       1.00800           0
     18477 TIP3     3301     TIP3     OH2      OT      -0.834000       15.9994           0
     18478 TIP3     3301     TIP3     H1       HT       0.417000       1.00800           0
     18479 TIP3     3301     TIP3     H2       HT       0.417000       1.00800           0
     18480 TIP3     3302     TIP3     OH2      OT      -0.834000       15.9994           0
     18481 TIP3     3302     TIP3     H1       HT       0.417000       1.00800           0
     18482 TIP3     3302     TIP3     H2       HT       0.417000       1.00800           0
     18483 TIP3     3303     TIP3     OH2      OT      -0.834000       15.9994           0
     18484 TIP3     3303     TIP3     H1       HT       0.417000       1.00800           0
     18485 TIP3     3303     TIP3     H2       HT       0.417000       1.00800           0
     18486 TIP3     3304     TIP3     OH2      OT      -0.834000       15.9994           0
     18487 TIP3     3304     TIP3     H1       HT       0.417000       1.00800           0
     18488 TIP3     3304     TIP3     H2       HT       0.417000       1.00800           0
     18489 TIP3     3305     TIP3     OH2      OT      -0.834000       15.9994           0
     18490 TIP3     3305     TIP3     H1       HT       0.417000       1.00800           0
     18491 TIP3     3305     TIP3     H2       HT       0.417000       1.00800           0
     18492 TIP3     3306     TIP3     OH2      OT      -0.834000       15.9994           0
     18493 TIP3     3306     TIP3     H1       HT       0.417000       1.00800           0
     18494 TIP3     3306     TIP3     H2       HT       0.417000       1.00800           0
     18495 TIP3     3307     TIP3     OH2      OT      -0.834000       15.9994           0
     18496 TIP3     3307     TIP3     H1       HT       0.417000       1.00800           0
     18497 TIP3     3307     TIP3     H2       HT       0.417000       1.00800           0
     18498 TIP3     3308     TIP3     OH2      OT      -0.834000       15.9994           0
     18499 TIP3     3308     TIP3     H1       HT       0.417000       1.00800           0
     18500 TIP3     3308     TIP3     H2       HT       0.417000       1.00800           0
     18501 TIP3     3309     TIP3     OH2      OT      -0.834000       15.9994           0
     18502 TIP3     3309     TIP3     H1       HT       0.417000       1.00800           0
     18503 TIP3     3309     TIP3     H2       HT       0.417000       1.00800           0
     18504 TIP3     3310     TIP3     OH2      OT      -0.834000       15.9994           0
     18505 TIP3     3310     TIP3     H1       HT       0.417000       1.00800           0
     18506 TIP3     3310     TIP3     H2       HT       0.417000       1.00800           0
     18507 TIP3     3311     TIP3     OH2      OT      -0.834000       15.9994           0
     18508 TIP3     3311     TIP3     H1       HT       0.417000       1.00800           0
     18509 TIP3     3311     TIP3     H2       HT       0.417000       1.00800           0
     18510 TIP3     3312     TIP3     OH2      OT      -0.834000       15.9994           0
     18511 TIP3     3312     TIP3     H1       HT       0.417000       1.00800           0
     18512 TIP3     3312     TIP3     H2       HT       0.417000       1.00800           0
     18513 TIP3     3313     TIP3     OH2      OT      -0.834000       15.9994           0
     18514 TIP3     3313     TIP3     H1       HT       0.417000       1.00800           0
     18515 TIP3     3313     TIP3     H2       HT       0.417000       1.00800           0
     18516 TIP3     3314     TIP3     OH2      OT      -0.834000       15.9994           0
     18517 TIP3     3314     TIP3     H1       HT       0.417000       1.00800           0
     18518 TIP3     3314     TIP3     H2       HT       0.417000       1.00800           0
     18519 TIP3     3315     TIP3     OH2      OT      -0.834000       15.9994           0
     18520 TIP3     3315     TIP3     H1       HT       0.417000       1.00800           0
     18521 TIP3     3315     TIP3     H2       HT       0.417000       1.00800           0
     18522 TIP3     3316     TIP3     OH2      OT      -0.834000       15.9994           0
     18523 TIP3     3316     TIP3     H1       HT       0.417000       1.00800           0
     18524 TIP3     3316     TIP3     H2       HT       0.417000       1.00800           0
     18525 TIP3     3317     TIP3     OH2      OT      -0.834000       15.9994           0
     18526 TIP3     3317     TIP3     H1       HT       0.417000       1.00800           0
     18527 TIP3     3317     TIP3     H2       HT       0.417000       1.00800           0
     18528 TIP3     3318     TIP3     OH2      OT      -0.834000       15.9994           0
     18529 TIP3     3318     TIP3     H1       HT       0.417000       1.00800           0
     18530 TIP3     3318     TIP3     H2       HT       0.417000       1.00800           0
     18531 TIP3     3319     TIP3     OH2      OT      -0.834000       15.9994           0
     18532 TIP3     3319     TIP3     H1       HT       0.417000       1.00800           0
     18533 TIP3     3319     TIP3     H2       HT       0.417000       1.00800           0
     18534 TIP3     3320     TIP3     OH2      OT      -0.834000       15.9994           0
     18535 TIP3     3320     TIP3     H1       HT       0.417000       1.00800           0
     18536 TIP3     3320     TIP3     H2       HT       0.417000       1.00800           0
     18537 TIP3     3321     TIP3     OH2      OT      -0.834000       15.9994           0
     18538 TIP3     3321     TIP3     H1       HT       0.417000       1.00800           0
     18539 TIP3     3321     TIP3     H2       HT       0.417000       1.00800           0
     18540 TIP3     3322     TIP3     OH2      OT      -0.834000       15.9994           0
     18541 TIP3     3322     TIP3     H1       HT       0.417000       1.00800           0
     18542 TIP3     3322     TIP3     H2       HT       0.417000       1.00800           0
     18543 TIP3     3323     TIP3     OH2      OT      -0.834000       15.9994           0
     18544 TIP3     3323     TIP3     H1       HT       0.417000       1.00800           0
     18545 TIP3     3323     TIP3     H2       HT       0.417000       1.00800           0
     18546 TIP3     3324     TIP3     OH2      OT      -0.834000       15.9994           0
     18547 TIP3     3324     TIP3     H1       HT       0.417000       1.00800           0
     18548 TIP3     3324     TIP3     H2       HT       0.417000       1.00800           0
     18549 TIP3     3325     TIP3     OH2      OT      -0.834000       15.9994           0
     18550 TIP3     3325     TIP3     H1       HT       0.417000       1.00800           0
     18551 TIP3     3325     TIP3     H2       HT       0.417000       1.00800           0
     18552 TIP3     3326     TIP3     OH2      OT      -0.834000       15.9994           0
     18553 TIP3     3326     TIP3     H1       HT       0.417000       1.00800           0
     18554 TIP3     3326     TIP3     H2       HT       0.417000       1.00800           0
     18555 TIP3     3327     TIP3     OH2      OT      -0.834000       15.9994           0
     18556 TIP3     3327     TIP3     H1       HT       0.417000       1.00800           0
     18557 TIP3     3327     TIP3     H2       HT       0.417000       1.00800           0
     18558 TIP3     3328     TIP3     OH2      OT      -0.834000       15.9994           0
     18559 TIP3     3328     TIP3     H1       HT       0.417000       1.00800           0
     18560 TIP3     3328     TIP3     H2       HT       0.417000       1.00800           0
     18561 TIP3     3329     TIP3     OH2      OT      -0.834000       15.9994           0
     18562 TIP3     3329     TIP3     H1       HT       0.417000       1.00800           0
     18563 TIP3     3329     TIP3     H2       HT       0.417000       1.00800           0
     18564 TIP3     3330     TIP3     OH2      OT      -0.834000       15.9994           0
     18565 TIP3     3330     TIP3     H1       HT       0.417000       1.00800           0
     18566 TIP3     3330     TIP3     H2       HT       0.417000       1.00800           0
     18567 TIP3     3331     TIP3     OH2      OT      -0.834000       15.9994           0
     18568 TIP3     3331     TIP3     H1       HT       0.417000       1.00800           0
     18569 TIP3     3331     TIP3     H2       HT       0.417000       1.00800           0
     18570 TIP3     3332     TIP3     OH2      OT      -0.834000       15.9994           0
     18571 TIP3     3332     TIP3     H1       HT       0.417000       1.00800           0
     18572 TIP3     3332     TIP3     H2       HT       0.417000       1.00800           0
     18573 TIP3     3333     TIP3     OH2      OT      -0.834000       15.9994           0
     18574 TIP3     3333     TIP3     H1       HT       0.417000       1.00800           0
     18575 TIP3     3333     TIP3     H2       HT       0.417000       1.00800           0
     18576 TIP3     3334     TIP3     OH2      OT      -0.834000       15.9994           0
     18577 TIP3     3334     TIP3     H1       HT       0.417000       1.00800           0
     18578 TIP3     3334     TIP3     H2       HT       0.417000       1.00800           0
     18579 TIP3     3335     TIP3     OH2      OT      -0.834000       15.9994           0
     18580 TIP3     3335     TIP3     H1       HT       0.417000       1.00800           0
     18581 TIP3     3335     TIP3     H2       HT       0.417000       1.00800           0
     18582 TIP3     3336     TIP3     OH2      OT      -0.834000       15.9994           0
     18583 TIP3     3336     TIP3     H1       HT       0.417000       1.00800           0
     18584 TIP3     3336     TIP3     H2       HT       0.417000       1.00800           0
     18585 TIP3     3337     TIP3     OH2      OT      -0.834000       15.9994           0
     18586 TIP3     3337     TIP3     H1       HT       0.417000       1.00800           0
     18587 TIP3     3337     TIP3     H2       HT       0.417000       1.00800           0
     18588 TIP3     3338     TIP3     OH2      OT      -0.834000       15.9994           0
     18589 TIP3     3338     TIP3     H1       HT       0.417000       1.00800           0
     18590 TIP3     3338     TIP3     H2       HT       0.417000       1.00800           0
     18591 TIP3     3339     TIP3     OH2      OT      -0.834000       15.9994           0
     18592 TIP3     3339     TIP3     H1       HT       0.417000       1.00800           0
     18593 TIP3     3339     TIP3     H2       HT       0.417000       1.00800           0
     18594 TIP3     3340     TIP3     OH2      OT      -0.834000       15.9994           0
     18595 TIP3     3340     TIP3     H1       HT       0.417000       1.00800           0
     18596 TIP3     3340     TIP3     H2       HT       0.417000       1.00800           0
     18597 TIP3     3341     TIP3     OH2      OT      -0.834000       15.9994           0
     18598 TIP3     3341     TIP3     H1       HT       0.417000       1.00800           0
     18599 TIP3     3341     TIP3     H2       HT       0.417000       1.00800           0
     18600 TIP3     3342     TIP3     OH2      OT      -0.834000       15.9994           0
     18601 TIP3     3342     TIP3     H1       HT       0.417000       1.00800           0
     18602 TIP3     3342     TIP3     H2       HT       0.417000       1.00800           0
     18603 TIP3     3343     TIP3     OH2      OT      -0.834000       15.9994           0
     18604 TIP3     3343     TIP3     H1       HT       0.417000       1.00800           0
     18605 TIP3     3343     TIP3     H2       HT       0.417000       1.00800           0
     18606 TIP3     3344     TIP3     OH2      OT      -0.834000       15.9994           0
     18607 TIP3     3344     TIP3     H1       HT       0.417000       1.00800           0
     18608 TIP3     3344     TIP3     H2       HT       0.417000       1.00800           0
     18609 TIP3     3345     TIP3     OH2      OT      -0.834000       15.9994           0
     18610 TIP3     3345     TIP3     H1       HT       0.417000       1.00800           0
     18611 TIP3     3345     TIP3     H2       HT       0.417000       1.00800           0
     18612 TIP3     3346     TIP3     OH2      OT      -0.834000       15.9994           0
     18613 TIP3     3346     TIP3     H1       HT       0.417000       1.00800           0
     18614 TIP3     3346     TIP3     H2       HT       0.417000       1.00800           0
     18615 TIP3     3347     TIP3     OH2      OT      -0.834000       15.9994           0
     18616 TIP3     3347     TIP3     H1       HT       0.417000       1.00800           0
     18617 TIP3     3347     TIP3     H2       HT       0.417000       1.00800           0
     18618 TIP3     3348     TIP3     OH2      OT      -0.834000       15.9994           0
     18619 TIP3     3348     TIP3     H1       HT       0.417000       1.00800           0
     18620 TIP3     3348     TIP3     H2       HT       0.417000       1.00800           0
     18621 TIP3     3349     TIP3     OH2      OT      -0.834000       15.9994           0
     18622 TIP3     3349     TIP3     H1       HT       0.417000       1.00800           0
     18623 TIP3     3349     TIP3     H2       HT       0.417000       1.00800           0
     18624 TIP3     3350     TIP3     OH2      OT      -0.834000       15.9994           0
     18625 TIP3     3350     TIP3     H1       HT       0.417000       1.00800           0
     18626 TIP3     3350     TIP3     H2       HT       0.417000       1.00800           0
     18627 TIP3     3351     TIP3     OH2      OT      -0.834000       15.9994           0
     18628 TIP3     3351     TIP3     H1       HT       0.417000       1.00800           0
     18629 TIP3     3351     TIP3     H2       HT       0.417000       1.00800           0
     18630 TIP3     3352     TIP3     OH2      OT      -0.834000       15.9994           0
     18631 TIP3     3352     TIP3     H1       HT       0.417000       1.00800           0
     18632 TIP3     3352     TIP3     H2       HT       0.417000       1.00800           0
     18633 TIP3     3353     TIP3     OH2      OT      -0.834000       15.9994           0
     18634 TIP3     3353     TIP3     H1       HT       0.417000       1.00800           0
     18635 TIP3     3353     TIP3     H2       HT       0.417000       1.00800           0
     18636 TIP3     3354     TIP3     OH2      OT      -0.834000       15.9994           0
     18637 TIP3     3354     TIP3     H1       HT       0.417000       1.00800           0
     18638 TIP3     3354     TIP3     H2       HT       0.417000       1.00800           0
     18639 TIP3     3355     TIP3     OH2      OT      -0.834000       15.9994           0
     18640 TIP3     3355     TIP3     H1       HT       0.417000       1.00800           0
     18641 TIP3     3355     TIP3     H2       HT       0.417000       1.00800           0
     18642 TIP3     3356     TIP3     OH2      OT      -0.834000       15.9994           0
     18643 TIP3     3356     TIP3     H1       HT       0.417000       1.00800           0
     18644 TIP3     3356     TIP3     H2       HT       0.417000       1.00800           0
     18645 TIP3     3357     TIP3     OH2      OT      -0.834000       15.9994           0
     18646 TIP3     3357     TIP3     H1       HT       0.417000       1.00800           0
     18647 TIP3     3357     TIP3     H2       HT       0.417000       1.00800           0
     18648 TIP3     3358     TIP3     OH2      OT      -0.834000       15.9994           0
     18649 TIP3     3358     TIP3     H1       HT       0.417000       1.00800           0
     18650 TIP3     3358     TIP3     H2       HT       0.417000       1.00800           0
     18651 TIP3     3359     TIP3     OH2      OT      -0.834000       15.9994           0
     18652 TIP3     3359     TIP3     H1       HT       0.417000       1.00800           0
     18653 TIP3     3359     TIP3     H2       HT       0.417000       1.00800           0
     18654 TIP3     3360     TIP3     OH2      OT      -0.834000       15.9994           0
     18655 TIP3     3360     TIP3     H1       HT       0.417000       1.00800           0
     18656 TIP3     3360     TIP3     H2       HT       0.417000       1.00800           0
     18657 TIP3     3361     TIP3     OH2      OT      -0.834000       15.9994           0
     18658 TIP3     3361     TIP3     H1       HT       0.417000       1.00800           0
     18659 TIP3     3361     TIP3     H2       HT       0.417000       1.00800           0
     18660 TIP3     3362     TIP3     OH2      OT      -0.834000       15.9994           0
     18661 TIP3     3362     TIP3     H1       HT       0.417000       1.00800           0
     18662 TIP3     3362     TIP3     H2       HT       0.417000       1.00800           0
     18663 TIP3     3363     TIP3     OH2      OT      -0.834000       15.9994           0
     18664 TIP3     3363     TIP3     H1       HT       0.417000       1.00800           0
     18665 TIP3     3363     TIP3     H2       HT       0.417000       1.00800           0
     18666 TIP3     3364     TIP3     OH2      OT      -0.834000       15.9994           0
     18667 TIP3     3364     TIP3     H1       HT       0.417000       1.00800           0
     18668 TIP3     3364     TIP3     H2       HT       0.417000       1.00800           0
     18669 TIP3     3365     TIP3     OH2      OT      -0.834000       15.9994           0
     18670 TIP3     3365     TIP3     H1       HT       0.417000       1.00800           0
     18671 TIP3     3365     TIP3     H2       HT       0.417000       1.00800           0
     18672 TIP3     3366     TIP3     OH2      OT      -0.834000       15.9994           0
     18673 TIP3     3366     TIP3     H1       HT       0.417000       1.00800           0
     18674 TIP3     3366     TIP3     H2       HT       0.417000       1.00800           0
     18675 TIP3     3367     TIP3     OH2      OT      -0.834000       15.9994           0
     18676 TIP3     3367     TIP3     H1       HT       0.417000       1.00800           0
     18677 TIP3     3367     TIP3     H2       HT       0.417000       1.00800           0
     18678 TIP3     3368     TIP3     OH2      OT      -0.834000       15.9994           0
     18679 TIP3     3368     TIP3     H1       HT       0.417000       1.00800           0
     18680 TIP3     3368     TIP3     H2       HT       0.417000       1.00800           0
     18681 TIP3     3369     TIP3     OH2      OT      -0.834000       15.9994           0
     18682 TIP3     3369     TIP3     H1       HT       0.417000       1.00800           0
     18683 TIP3     3369     TIP3     H2       HT       0.417000       1.00800           0
     18684 TIP3     3370     TIP3     OH2      OT      -0.834000       15.9994           0
     18685 TIP3     3370     TIP3     H1       HT       0.417000       1.00800           0
     18686 TIP3     3370     TIP3     H2       HT       0.417000       1.00800           0
     18687 TIP3     3371     TIP3     OH2      OT      -0.834000       15.9994           0
     18688 TIP3     3371     TIP3     H1       HT       0.417000       1.00800           0
     18689 TIP3     3371     TIP3     H2       HT       0.417000       1.00800           0
     18690 TIP3     3372     TIP3     OH2      OT      -0.834000       15.9994           0
     18691 TIP3     3372     TIP3     H1       HT       0.417000       1.00800           0
     18692 TIP3     3372     TIP3     H2       HT       0.417000       1.00800           0
     18693 TIP3     3373     TIP3     OH2      OT      -0.834000       15.9994           0
     18694 TIP3     3373     TIP3     H1       HT       0.417000       1.00800           0
     18695 TIP3     3373     TIP3     H2       HT       0.417000       1.00800           0
     18696 TIP3     3374     TIP3     OH2      OT      -0.834000       15.9994           0
     18697 TIP3     3374     TIP3     H1       HT       0.417000       1.00800           0
     18698 TIP3     3374     TIP3     H2       HT       0.417000       1.00800           0
     18699 TIP3     3375     TIP3     OH2      OT      -0.834000       15.9994           0
     18700 TIP3     3375     TIP3     H1       HT       0.417000       1.00800           0
     18701 TIP3     3375     TIP3     H2       HT       0.417000       1.00800           0
     18702 TIP3     3376     TIP3     OH2      OT      -0.834000       15.9994           0
     18703 TIP3     3376     TIP3     H1       HT       0.417000       1.00800           0
     18704 TIP3     3376     TIP3     H2       HT       0.417000       1.00800           0
     18705 TIP3     3377     TIP3     OH2      OT      -0.834000       15.9994           0
     18706 TIP3     3377     TIP3     H1       HT       0.417000       1.00800           0
     18707 TIP3     3377     TIP3     H2       HT       0.417000       1.00800           0
     18708 TIP3     3378     TIP3     OH2      OT      -0.834000       15.9994           0
     18709 TIP3     3378     TIP3     H1       HT       0.417000       1.00800           0
     18710 TIP3     3378     TIP3     H2       HT       0.417000       1.00800           0
     18711 TIP3     3379     TIP3     OH2      OT      -0.834000       15.9994           0
     18712 TIP3     3379     TIP3     H1       HT       0.417000       1.00800           0
     18713 TIP3     3379     TIP3     H2       HT       0.417000       1.00800           0
     18714 TIP3     3380     TIP3     OH2      OT      -0.834000       15.9994           0
     18715 TIP3     3380     TIP3     H1       HT       0.417000       1.00800           0
     18716 TIP3     3380     TIP3     H2       HT       0.417000       1.00800           0
     18717 TIP3     3381     TIP3     OH2      OT      -0.834000       15.9994           0
     18718 TIP3     3381     TIP3     H1       HT       0.417000       1.00800           0
     18719 TIP3     3381     TIP3     H2       HT       0.417000       1.00800           0
     18720 TIP3     3382     TIP3     OH2      OT      -0.834000       15.9994           0
     18721 TIP3     3382     TIP3     H1       HT       0.417000       1.00800           0
     18722 TIP3     3382     TIP3     H2       HT       0.417000       1.00800           0
     18723 TIP3     3383     TIP3     OH2      OT      -0.834000       15.9994           0
     18724 TIP3     3383     TIP3     H1       HT       0.417000       1.00800           0
     18725 TIP3     3383     TIP3     H2       HT       0.417000       1.00800           0
     18726 TIP3     3384     TIP3     OH2      OT      -0.834000       15.9994           0
     18727 TIP3     3384     TIP3     H1       HT       0.417000       1.00800           0
     18728 TIP3     3384     TIP3     H2       HT       0.417000       1.00800           0
     18729 TIP3     3385     TIP3     OH2      OT      -0.834000       15.9994           0
     18730 TIP3     3385     TIP3     H1       HT       0.417000       1.00800           0
     18731 TIP3     3385     TIP3     H2       HT       0.417000       1.00800           0
     18732 TIP3     3386     TIP3     OH2      OT      -0.834000       15.9994           0
     18733 TIP3     3386     TIP3     H1       HT       0.417000       1.00800           0
     18734 TIP3     3386     TIP3     H2       HT       0.417000       1.00800           0
     18735 TIP3     3387     TIP3     OH2      OT      -0.834000       15.9994           0
     18736 TIP3     3387     TIP3     H1       HT       0.417000       1.00800           0
     18737 TIP3     3387     TIP3     H2       HT       0.417000       1.00800           0
     18738 TIP3     3388     TIP3     OH2      OT      -0.834000       15.9994           0
     18739 TIP3     3388     TIP3     H1       HT       0.417000       1.00800           0
     18740 TIP3     3388     TIP3     H2       HT       0.417000       1.00800           0
     18741 TIP3     3389     TIP3     OH2      OT      -0.834000       15.9994           0
     18742 TIP3     3389     TIP3     H1       HT       0.417000       1.00800           0
     18743 TIP3     3389     TIP3     H2       HT       0.417000       1.00800           0
     18744 TIP3     3390     TIP3     OH2      OT      -0.834000       15.9994           0
     18745 TIP3     3390     TIP3     H1       HT       0.417000       1.00800           0
     18746 TIP3     3390     TIP3     H2       HT       0.417000       1.00800           0
     18747 TIP3     3391     TIP3     OH2      OT      -0.834000       15.9994           0
     18748 TIP3     3391     TIP3     H1       HT       0.417000       1.00800           0
     18749 TIP3     3391     TIP3     H2       HT       0.417000       1.00800           0
     18750 TIP3     3392     TIP3     OH2      OT      -0.834000       15.9994           0
     18751 TIP3     3392     TIP3     H1       HT       0.417000       1.00800           0
     18752 TIP3     3392     TIP3     H2       HT       0.417000       1.00800           0
     18753 TIP3     3393     TIP3     OH2      OT      -0.834000       15.9994           0
     18754 TIP3     3393     TIP3     H1       HT       0.417000       1.00800           0
     18755 TIP3     3393     TIP3     H2       HT       0.417000       1.00800           0
     18756 TIP3     3394     TIP3     OH2      OT      -0.834000       15.9994           0
     18757 TIP3     3394     TIP3     H1       HT       0.417000       1.00800           0
     18758 TIP3     3394     TIP3     H2       HT       0.417000       1.00800           0
     18759 TIP3     3395     TIP3     OH2      OT      -0.834000       15.9994           0
     18760 TIP3     3395     TIP3     H1       HT       0.417000       1.00800           0
     18761 TIP3     3395     TIP3     H2       HT       0.417000       1.00800           0
     18762 TIP3     3396     TIP3     OH2      OT      -0.834000       15.9994           0
     18763 TIP3     3396     TIP3     H1       HT       0.417000       1.00800           0
     18764 TIP3     3396     TIP3     H2       HT       0.417000       1.00800           0
     18765 TIP3     3397     TIP3     OH2      OT      -0.834000       15.9994           0
     18766 TIP3     3397     TIP3     H1       HT       0.417000       1.00800           0
     18767 TIP3     3397     TIP3     H2       HT       0.417000       1.00800           0
     18768 TIP3     3398     TIP3     OH2      OT      -0.834000       15.9994           0
     18769 TIP3     3398     TIP3     H1       HT       0.417000       1.00800           0
     18770 TIP3     3398     TIP3     H2       HT       0.417000       1.00800           0
     18771 TIP3     3399     TIP3     OH2      OT      -0.834000       15.9994           0
     18772 TIP3     3399     TIP3     H1       HT       0.417000       1.00800           0
     18773 TIP3     3399     TIP3     H2       HT       0.417000       1.00800           0
     18774 TIP3     3400     TIP3     OH2      OT      -0.834000       15.9994           0
     18775 TIP3     3400     TIP3     H1       HT       0.417000       1.00800           0
     18776 TIP3     3400     TIP3     H2       HT       0.417000       1.00800           0
     18777 TIP3     3401     TIP3     OH2      OT      -0.834000       15.9994           0
     18778 TIP3     3401     TIP3     H1       HT       0.417000       1.00800           0
     18779 TIP3     3401     TIP3     H2       HT       0.417000       1.00800           0
     18780 TIP3     3402     TIP3     OH2      OT      -0.834000       15.9994           0
     18781 TIP3     3402     TIP3     H1       HT       0.417000       1.00800           0
     18782 TIP3     3402     TIP3     H2       HT       0.417000       1.00800           0
     18783 TIP3     3403     TIP3     OH2      OT      -0.834000       15.9994           0
     18784 TIP3     3403     TIP3     H1       HT       0.417000       1.00800           0
     18785 TIP3     3403     TIP3     H2       HT       0.417000       1.00800           0
     18786 TIP3     3404     TIP3     OH2      OT      -0.834000       15.9994           0
     18787 TIP3     3404     TIP3     H1       HT       0.417000       1.00800           0
     18788 TIP3     3404     TIP3     H2       HT       0.417000       1.00800           0
     18789 TIP3     3405     TIP3     OH2      OT      -0.834000       15.9994           0
     18790 TIP3     3405     TIP3     H1       HT       0.417000       1.00800           0
     18791 TIP3     3405     TIP3     H2       HT       0.417000       1.00800           0
     18792 TIP3     3406     TIP3     OH2      OT      -0.834000       15.9994           0
     18793 TIP3     3406     TIP3     H1       HT       0.417000       1.00800           0
     18794 TIP3     3406     TIP3     H2       HT       0.417000       1.00800           0
     18795 TIP3     3407     TIP3     OH2      OT      -0.834000       15.9994           0
     18796 TIP3     3407     TIP3     H1       HT       0.417000       1.00800           0
     18797 TIP3     3407     TIP3     H2       HT       0.417000       1.00800           0
     18798 TIP3     3408     TIP3     OH2      OT      -0.834000       15.9994           0
     18799 TIP3     3408     TIP3     H1       HT       0.417000       1.00800           0
     18800 TIP3     3408     TIP3     H2       HT       0.417000       1.00800           0
     18801 TIP3     3409     TIP3     OH2      OT      -0.834000       15.9994           0
     18802 TIP3     3409     TIP3     H1       HT       0.417000       1.00800           0
     18803 TIP3     3409     TIP3     H2       HT       0.417000       1.00800           0
     18804 TIP3     3410     TIP3     OH2      OT      -0.834000       15.9994           0
     18805 TIP3     3410     TIP3     H1       HT       0.417000       1.00800           0
     18806 TIP3     3410     TIP3     H2       HT       0.417000       1.00800           0
     18807 TIP3     3411     TIP3     OH2      OT      -0.834000       15.9994           0
     18808 TIP3     3411     TIP3     H1       HT       0.417000       1.00800           0
     18809 TIP3     3411     TIP3     H2       HT       0.417000       1.00800           0
     18810 TIP3     3412     TIP3     OH2      OT      -0.834000       15.9994           0
     18811 TIP3     3412     TIP3     H1       HT       0.417000       1.00800           0
     18812 TIP3     3412     TIP3     H2       HT       0.417000       1.00800           0
     18813 TIP3     3413     TIP3     OH2      OT      -0.834000       15.9994           0
     18814 TIP3     3413     TIP3     H1       HT       0.417000       1.00800           0
     18815 TIP3     3413     TIP3     H2       HT       0.417000       1.00800           0
     18816 TIP3     3414     TIP3     OH2      OT      -0.834000       15.9994           0
     18817 TIP3     3414     TIP3     H1       HT       0.417000       1.00800           0
     18818 TIP3     3414     TIP3     H2       HT       0.417000       1.00800           0
     18819 TIP3     3415     TIP3     OH2      OT      -0.834000       15.9994           0
     18820 TIP3     3415     TIP3     H1       HT       0.417000       1.00800           0
     18821 TIP3     3415     TIP3     H2       HT       0.417000       1.00800           0
     18822 TIP3     3416     TIP3     OH2      OT      -0.834000       15.9994           0
     18823 TIP3     3416     TIP3     H1       HT       0.417000       1.00800           0
     18824 TIP3     3416     TIP3     H2       HT       0.417000       1.00800           0
     18825 TIP3     3417     TIP3     OH2      OT      -0.834000       15.9994           0
     18826 TIP3     3417     TIP3     H1       HT       0.417000       1.00800           0
     18827 TIP3     3417     TIP3     H2       HT       0.417000       1.00800           0
     18828 TIP3     3418     TIP3     OH2      OT      -0.834000       15.9994           0
     18829 TIP3     3418     TIP3     H1       HT       0.417000       1.00800           0
     18830 TIP3     3418     TIP3     H2       HT       0.417000       1.00800           0
     18831 TIP3     3419     TIP3     OH2      OT      -0.834000       15.9994           0
     18832 TIP3     3419     TIP3     H1       HT       0.417000       1.00800           0
     18833 TIP3     3419     TIP3     H2       HT       0.417000       1.00800           0
     18834 TIP3     3420     TIP3     OH2      OT      -0.834000       15.9994           0
     18835 TIP3     3420     TIP3     H1       HT       0.417000       1.00800           0
     18836 TIP3     3420     TIP3     H2       HT       0.417000       1.00800           0
     18837 TIP3     3421     TIP3     OH2      OT      -0.834000       15.9994           0
     18838 TIP3     3421     TIP3     H1       HT       0.417000       1.00800           0
     18839 TIP3     3421     TIP3     H2       HT       0.417000       1.00800           0
     18840 TIP3     3422     TIP3     OH2      OT      -0.834000       15.9994           0
     18841 TIP3     3422     TIP3     H1       HT       0.417000       1.00800           0
     18842 TIP3     3422     TIP3     H2       HT       0.417000       1.00800           0
     18843 TIP3     3423     TIP3     OH2      OT      -0.834000       15.9994           0
     18844 TIP3     3423     TIP3     H1       HT       0.417000       1.00800           0
     18845 TIP3     3423     TIP3     H2       HT       0.417000       1.00800           0
     18846 TIP3     3424     TIP3     OH2      OT      -0.834000       15.9994           0
     18847 TIP3     3424     TIP3     H1       HT       0.417000       1.00800           0
     18848 TIP3     3424     TIP3     H2       HT       0.417000       1.00800           0
     18849 TIP3     3425     TIP3     OH2      OT      -0.834000       15.9994           0
     18850 TIP3     3425     TIP3     H1       HT       0.417000       1.00800           0
     18851 TIP3     3425     TIP3     H2       HT       0.417000       1.00800           0
     18852 TIP3     3426     TIP3     OH2      OT      -0.834000       15.9994           0
     18853 TIP3     3426     TIP3     H1       HT       0.417000       1.00800           0
     18854 TIP3     3426     TIP3     H2       HT       0.417000       1.00800           0
     18855 TIP3     3427     TIP3     OH2      OT      -0.834000       15.9994           0
     18856 TIP3     3427     TIP3     H1       HT       0.417000       1.00800           0
     18857 TIP3     3427     TIP3     H2       HT       0.417000       1.00800           0
     18858 TIP3     3428     TIP3     OH2      OT      -0.834000       15.9994           0
     18859 TIP3     3428     TIP3     H1       HT       0.417000       1.00800           0
     18860 TIP3     3428     TIP3     H2       HT       0.417000       1.00800           0
     18861 TIP3     3429     TIP3     OH2      OT      -0.834000       15.9994           0
     18862 TIP3     3429     TIP3     H1       HT       0.417000       1.00800           0
     18863 TIP3     3429     TIP3     H2       HT       0.417000       1.00800           0
     18864 TIP3     3430     TIP3     OH2      OT      -0.834000       15.9994           0
     18865 TIP3     3430     TIP3     H1       HT       0.417000       1.00800           0
     18866 TIP3     3430     TIP3     H2       HT       0.417000       1.00800           0
     18867 TIP3     3431     TIP3     OH2      OT      -0.834000       15.9994           0
     18868 TIP3     3431     TIP3     H1       HT       0.417000       1.00800           0
     18869 TIP3     3431     TIP3     H2       HT       0.417000       1.00800           0
     18870 TIP3     3432     TIP3     OH2      OT      -0.834000       15.9994           0
     18871 TIP3     3432     TIP3     H1       HT       0.417000       1.00800           0
     18872 TIP3     3432     TIP3     H2       HT       0.417000       1.00800           0
     18873 TIP3     3433     TIP3     OH2      OT      -0.834000       15.9994           0
     18874 TIP3     3433     TIP3     H1       HT       0.417000       1.00800           0
     18875 TIP3     3433     TIP3     H2       HT       0.417000       1.00800           0
     18876 TIP3     3434     TIP3     OH2      OT      -0.834000       15.9994           0
     18877 TIP3     3434     TIP3     H1       HT       0.417000       1.00800           0
     18878 TIP3     3434     TIP3     H2       HT       0.417000       1.00800           0
     18879 TIP3     3435     TIP3     OH2      OT      -0.834000       15.9994           0
     18880 TIP3     3435     TIP3     H1       HT       0.417000       1.00800           0
     18881 TIP3     3435     TIP3     H2       HT       0.417000       1.00800           0
     18882 TIP3     3436     TIP3     OH2      OT      -0.834000       15.9994           0
     18883 TIP3     3436     TIP3     H1       HT       0.417000       1.00800           0
     18884 TIP3     3436     TIP3     H2       HT       0.417000       1.00800           0
     18885 TIP3     3437     TIP3     OH2      OT      -0.834000       15.9994           0
     18886 TIP3     3437     TIP3     H1       HT       0.417000       1.00800           0
     18887 TIP3     3437     TIP3     H2       HT       0.417000       1.00800           0
     18888 TIP3     3438     TIP3     OH2      OT      -0.834000       15.9994           0
     18889 TIP3     3438     TIP3     H1       HT       0.417000       1.00800           0
     18890 TIP3     3438     TIP3     H2       HT       0.417000       1.00800           0
     18891 TIP3     3439     TIP3     OH2      OT      -0.834000       15.9994           0
     18892 TIP3     3439     TIP3     H1       HT       0.417000       1.00800           0
     18893 TIP3     3439     TIP3     H2       HT       0.417000       1.00800           0
     18894 TIP3     3440     TIP3     OH2      OT      -0.834000       15.9994           0
     18895 TIP3     3440     TIP3     H1       HT       0.417000       1.00800           0
     18896 TIP3     3440     TIP3     H2       HT       0.417000       1.00800           0
     18897 TIP3     3441     TIP3     OH2      OT      -0.834000       15.9994           0
     18898 TIP3     3441     TIP3     H1       HT       0.417000       1.00800           0
     18899 TIP3     3441     TIP3     H2       HT       0.417000       1.00800           0
     18900 TIP3     3442     TIP3     OH2      OT      -0.834000       15.9994           0
     18901 TIP3     3442     TIP3     H1       HT       0.417000       1.00800           0
     18902 TIP3     3442     TIP3     H2       HT       0.417000       1.00800           0
     18903 TIP3     3443     TIP3     OH2      OT      -0.834000       15.9994           0
     18904 TIP3     3443     TIP3     H1       HT       0.417000       1.00800           0
     18905 TIP3     3443     TIP3     H2       HT       0.417000       1.00800           0
     18906 TIP3     3444     TIP3     OH2      OT      -0.834000       15.9994           0
     18907 TIP3     3444     TIP3     H1       HT       0.417000       1.00800           0
     18908 TIP3     3444     TIP3     H2       HT       0.417000       1.00800           0
     18909 TIP3     3445     TIP3     OH2      OT      -0.834000       15.9994           0
     18910 TIP3     3445     TIP3     H1       HT       0.417000       1.00800           0
     18911 TIP3     3445     TIP3     H2       HT       0.417000       1.00800           0
     18912 TIP3     3446     TIP3     OH2      OT      -0.834000       15.9994           0
     18913 TIP3     3446     TIP3     H1       HT       0.417000       1.00800           0
     18914 TIP3     3446     TIP3     H2       HT       0.417000       1.00800           0
     18915 TIP3     3447     TIP3     OH2      OT      -0.834000       15.9994           0
     18916 TIP3     3447     TIP3     H1       HT       0.417000       1.00800           0
     18917 TIP3     3447     TIP3     H2       HT       0.417000       1.00800           0
     18918 TIP3     3448     TIP3     OH2      OT      -0.834000       15.9994           0
     18919 TIP3     3448     TIP3     H1       HT       0.417000       1.00800           0
     18920 TIP3     3448     TIP3     H2       HT       0.417000       1.00800           0
     18921 TIP3     3449     TIP3     OH2      OT      -0.834000       15.9994           0
     18922 TIP3     3449     TIP3     H1       HT       0.417000       1.00800           0
     18923 TIP3     3449     TIP3     H2       HT       0.417000       1.00800           0
     18924 TIP3     3450     TIP3     OH2      OT      -0.834000       15.9994           0
     18925 TIP3     3450     TIP3     H1       HT       0.417000       1.00800           0
     18926 TIP3     3450     TIP3     H2       HT       0.417000       1.00800           0
     18927 TIP3     3451     TIP3     OH2      OT      -0.834000       15.9994           0
     18928 TIP3     3451     TIP3     H1       HT       0.417000       1.00800           0
     18929 TIP3     3451     TIP3     H2       HT       0.417000       1.00800           0
     18930 TIP3     3452     TIP3     OH2      OT      -0.834000       15.9994           0
     18931 TIP3     3452     TIP3     H1       HT       0.417000       1.00800           0
     18932 TIP3     3452     TIP3     H2       HT       0.417000       1.00800           0
     18933 TIP3     3453     TIP3     OH2      OT      -0.834000       15.9994           0
     18934 TIP3     3453     TIP3     H1       HT       0.417000       1.00800           0
     18935 TIP3     3453     TIP3     H2       HT       0.417000       1.00800           0
     18936 TIP3     3454     TIP3     OH2      OT      -0.834000       15.9994           0
     18937 TIP3     3454     TIP3     H1       HT       0.417000       1.00800           0
     18938 TIP3     3454     TIP3     H2       HT       0.417000       1.00800           0
     18939 TIP3     3455     TIP3     OH2      OT      -0.834000       15.9994           0
     18940 TIP3     3455     TIP3     H1       HT       0.417000       1.00800           0
     18941 TIP3     3455     TIP3     H2       HT       0.417000       1.00800           0
     18942 TIP3     3456     TIP3     OH2      OT      -0.834000       15.9994           0
     18943 TIP3     3456     TIP3     H1       HT       0.417000       1.00800           0
     18944 TIP3     3456     TIP3     H2       HT       0.417000       1.00800           0
     18945 TIP3     3457     TIP3     OH2      OT      -0.834000       15.9994           0
     18946 TIP3     3457     TIP3     H1       HT       0.417000       1.00800           0
     18947 TIP3     3457     TIP3     H2       HT       0.417000       1.00800           0
     18948 TIP3     3458     TIP3     OH2      OT      -0.834000       15.9994           0
     18949 TIP3     3458     TIP3     H1       HT       0.417000       1.00800           0
     18950 TIP3     3458     TIP3     H2       HT       0.417000       1.00800           0
     18951 TIP3     3459     TIP3     OH2      OT      -0.834000       15.9994           0
     18952 TIP3     3459     TIP3     H1       HT       0.417000       1.00800           0
     18953 TIP3     3459     TIP3     H2       HT       0.417000       1.00800           0
     18954 TIP3     3460     TIP3     OH2      OT      -0.834000       15.9994           0
     18955 TIP3     3460     TIP3     H1       HT       0.417000       1.00800           0
     18956 TIP3     3460     TIP3     H2       HT       0.417000       1.00800           0
     18957 TIP3     3461     TIP3     OH2      OT      -0.834000       15.9994           0
     18958 TIP3     3461     TIP3     H1       HT       0.417000       1.00800           0
     18959 TIP3     3461     TIP3     H2       HT       0.417000       1.00800           0
     18960 TIP3     3462     TIP3     OH2      OT      -0.834000       15.9994           0
     18961 TIP3     3462     TIP3     H1       HT       0.417000       1.00800           0
     18962 TIP3     3462     TIP3     H2       HT       0.417000       1.00800           0
     18963 TIP3     3463     TIP3     OH2      OT      -0.834000       15.9994           0
     18964 TIP3     3463     TIP3     H1       HT       0.417000       1.00800           0
     18965 TIP3     3463     TIP3     H2       HT       0.417000       1.00800           0
     18966 TIP3     3464     TIP3     OH2      OT      -0.834000       15.9994           0
     18967 TIP3     3464     TIP3     H1       HT       0.417000       1.00800           0
     18968 TIP3     3464     TIP3     H2       HT       0.417000       1.00800           0
     18969 TIP3     3465     TIP3     OH2      OT      -0.834000       15.9994           0
     18970 TIP3     3465     TIP3     H1       HT       0.417000       1.00800           0
     18971 TIP3     3465     TIP3     H2       HT       0.417000       1.00800           0
     18972 TIP3     3466     TIP3     OH2      OT      -0.834000       15.9994           0
     18973 TIP3     3466     TIP3     H1       HT       0.417000       1.00800           0
     18974 TIP3     3466     TIP3     H2       HT       0.417000       1.00800           0
     18975 TIP3     3467     TIP3     OH2      OT      -0.834000       15.9994           0
     18976 TIP3     3467     TIP3     H1       HT       0.417000       1.00800           0
     18977 TIP3     3467     TIP3     H2       HT       0.417000       1.00800           0
     18978 TIP3     3468     TIP3     OH2      OT      -0.834000       15.9994           0
     18979 TIP3     3468     TIP3     H1       HT       0.417000       1.00800           0
     18980 TIP3     3468     TIP3     H2       HT       0.417000       1.00800           0
     18981 TIP3     3469     TIP3     OH2      OT      -0.834000       15.9994           0
     18982 TIP3     3469     TIP3     H1       HT       0.417000       1.00800           0
     18983 TIP3     3469     TIP3     H2       HT       0.417000       1.00800           0
     18984 TIP3     3470     TIP3     OH2      OT      -0.834000       15.9994           0
     18985 TIP3     3470     TIP3     H1       HT       0.417000       1.00800           0
     18986 TIP3     3470     TIP3     H2       HT       0.417000       1.00800           0
     18987 TIP3     3471     TIP3     OH2      OT      -0.834000       15.9994           0
     18988 TIP3     3471     TIP3     H1       HT       0.417000       1.00800           0
     18989 TIP3     3471     TIP3     H2       HT       0.417000       1.00800           0
     18990 TIP3     3472     TIP3     OH2      OT      -0.834000       15.9994           0
     18991 TIP3     3472     TIP3     H1       HT       0.417000       1.00800           0
     18992 TIP3     3472     TIP3     H2       HT       0.417000       1.00800           0
     18993 TIP3     3473     TIP3     OH2      OT      -0.834000       15.9994           0
     18994 TIP3     3473     TIP3     H1       HT       0.417000       1.00800           0
     18995 TIP3     3473     TIP3     H2       HT       0.417000       1.00800           0
     18996 TIP3     3474     TIP3     OH2      OT      -0.834000       15.9994           0
     18997 TIP3     3474     TIP3     H1       HT       0.417000       1.00800           0
     18998 TIP3     3474     TIP3     H2       HT       0.417000       1.00800           0
     18999 TIP3     3475     TIP3     OH2      OT      -0.834000       15.9994           0
     19000 TIP3     3475     TIP3     H1       HT       0.417000       1.00800           0
     19001 TIP3     3475     TIP3     H2       HT       0.417000       1.00800           0
     19002 TIP3     3476     TIP3     OH2      OT      -0.834000       15.9994           0
     19003 TIP3     3476     TIP3     H1       HT       0.417000       1.00800           0
     19004 TIP3     3476     TIP3     H2       HT       0.417000       1.00800           0
     19005 TIP3     3477     TIP3     OH2      OT      -0.834000       15.9994           0
     19006 TIP3     3477     TIP3     H1       HT       0.417000       1.00800           0
     19007 TIP3     3477     TIP3     H2       HT       0.417000       1.00800           0
     19008 TIP3     3478     TIP3     OH2      OT      -0.834000       15.9994           0
     19009 TIP3     3478     TIP3     H1       HT       0.417000       1.00800           0
     19010 TIP3     3478     TIP3     H2       HT       0.417000       1.00800           0
     19011 TIP3     3479     TIP3     OH2      OT      -0.834000       15.9994           0
     19012 TIP3     3479     TIP3     H1       HT       0.417000       1.00800           0
     19013 TIP3     3479     TIP3     H2       HT       0.417000       1.00800           0
     19014 TIP3     3480     TIP3     OH2      OT      -0.834000       15.9994           0
     19015 TIP3     3480     TIP3     H1       HT       0.417000       1.00800           0
     19016 TIP3     3480     TIP3     H2       HT       0.417000       1.00800           0
     19017 TIP3     3481     TIP3     OH2      OT      -0.834000       15.9994           0
     19018 TIP3     3481     TIP3     H1       HT       0.417000       1.00800           0
     19019 TIP3     3481     TIP3     H2       HT       0.417000       1.00800           0
     19020 TIP3     3482     TIP3     OH2      OT      -0.834000       15.9994           0
     19021 TIP3     3482     TIP3     H1       HT       0.417000       1.00800           0
     19022 TIP3     3482     TIP3     H2       HT       0.417000       1.00800           0
     19023 TIP3     3483     TIP3     OH2      OT      -0.834000       15.9994           0
     19024 TIP3     3483     TIP3     H1       HT       0.417000       1.00800           0
     19025 TIP3     3483     TIP3     H2       HT       0.417000       1.00800           0
     19026 TIP3     3484     TIP3     OH2      OT      -0.834000       15.9994           0
     19027 TIP3     3484     TIP3     H1       HT       0.417000       1.00800           0
     19028 TIP3     3484     TIP3     H2       HT       0.417000       1.00800           0
     19029 TIP3     3485     TIP3     OH2      OT      -0.834000       15.9994           0
     19030 TIP3     3485     TIP3     H1       HT       0.417000       1.00800           0
     19031 TIP3     3485     TIP3     H2       HT       0.417000       1.00800           0
     19032 TIP3     3486     TIP3     OH2      OT      -0.834000       15.9994           0
     19033 TIP3     3486     TIP3     H1       HT       0.417000       1.00800           0
     19034 TIP3     3486     TIP3     H2       HT       0.417000       1.00800           0
     19035 TIP3     3487     TIP3     OH2      OT      -0.834000       15.9994           0
     19036 TIP3     3487     TIP3     H1       HT       0.417000       1.00800           0
     19037 TIP3     3487     TIP3     H2       HT       0.417000       1.00800           0
     19038 TIP3     3488     TIP3     OH2      OT      -0.834000       15.9994           0
     19039 TIP3     3488     TIP3     H1       HT       0.417000       1.00800           0
     19040 TIP3     3488     TIP3     H2       HT       0.417000       1.00800           0
     19041 TIP3     3489     TIP3     OH2      OT      -0.834000       15.9994           0
     19042 TIP3     3489     TIP3     H1       HT       0.417000       1.00800           0
     19043 TIP3     3489     TIP3     H2       HT       0.417000       1.00800           0
     19044 TIP3     3490     TIP3     OH2      OT      -0.834000       15.9994           0
     19045 TIP3     3490     TIP3     H1       HT       0.417000       1.00800           0
     19046 TIP3     3490     TIP3     H2       HT       0.417000       1.00800           0
     19047 TIP3     3491     TIP3     OH2      OT      -0.834000       15.9994           0
     19048 TIP3     3491     TIP3     H1       HT       0.417000       1.00800           0
     19049 TIP3     3491     TIP3     H2       HT       0.417000       1.00800           0
     19050 TIP3     3492     TIP3     OH2      OT      -0.834000       15.9994           0
     19051 TIP3     3492     TIP3     H1       HT       0.417000       1.00800           0
     19052 TIP3     3492     TIP3     H2       HT       0.417000       1.00800           0
     19053 TIP3     3493     TIP3     OH2      OT      -0.834000       15.9994           0
     19054 TIP3     3493     TIP3     H1       HT       0.417000       1.00800           0
     19055 TIP3     3493     TIP3     H2       HT       0.417000       1.00800           0
     19056 TIP3     3494     TIP3     OH2      OT      -0.834000       15.9994           0
     19057 TIP3     3494     TIP3     H1       HT       0.417000       1.00800           0
     19058 TIP3     3494     TIP3     H2       HT       0.417000       1.00800           0
     19059 TIP3     3495     TIP3     OH2      OT      -0.834000       15.9994           0
     19060 TIP3     3495     TIP3     H1       HT       0.417000       1.00800           0
     19061 TIP3     3495     TIP3     H2       HT       0.417000       1.00800           0
     19062 TIP3     3496     TIP3     OH2      OT      -0.834000       15.9994           0
     19063 TIP3     3496     TIP3     H1       HT       0.417000       1.00800           0
     19064 TIP3     3496     TIP3     H2       HT       0.417000       1.00800           0
     19065 TIP3     3497     TIP3     OH2      OT      -0.834000       15.9994           0
     19066 TIP3     3497     TIP3     H1       HT       0.417000       1.00800           0
     19067 TIP3     3497     TIP3     H2       HT       0.417000       1.00800           0
     19068 TIP3     3498     TIP3     OH2      OT      -0.834000       15.9994           0
     19069 TIP3     3498     TIP3     H1       HT       0.417000       1.00800           0
     19070 TIP3     3498     TIP3     H2       HT       0.417000       1.00800           0
     19071 TIP3     3499     TIP3     OH2      OT      -0.834000       15.9994           0
     19072 TIP3     3499     TIP3     H1       HT       0.417000       1.00800           0
     19073 TIP3     3499     TIP3     H2       HT       0.417000       1.00800           0
     19074 TIP3     3500     TIP3     OH2      OT      -0.834000       15.9994           0
     19075 TIP3     3500     TIP3     H1       HT       0.417000       1.00800           0
     19076 TIP3     3500     TIP3     H2       HT       0.417000       1.00800           0
     19077 TIP3     3501     TIP3     OH2      OT      -0.834000       15.9994           0
     19078 TIP3     3501     TIP3     H1       HT       0.417000       1.00800           0
     19079 TIP3     3501     TIP3     H2       HT       0.417000       1.00800           0
     19080 TIP3     3502     TIP3     OH2      OT      -0.834000       15.9994           0
     19081 TIP3     3502     TIP3     H1       HT       0.417000       1.00800           0
     19082 TIP3     3502     TIP3     H2       HT       0.417000       1.00800           0
     19083 TIP3     3503     TIP3     OH2      OT      -0.834000       15.9994           0
     19084 TIP3     3503     TIP3     H1       HT       0.417000       1.00800           0
     19085 TIP3     3503     TIP3     H2       HT       0.417000       1.00800           0
     19086 TIP3     3504     TIP3     OH2      OT      -0.834000       15.9994           0
     19087 TIP3     3504     TIP3     H1       HT       0.417000       1.00800           0
     19088 TIP3     3504     TIP3     H2       HT       0.417000       1.00800           0
     19089 TIP3     3505     TIP3     OH2      OT      -0.834000       15.9994           0
     19090 TIP3     3505     TIP3     H1       HT       0.417000       1.00800           0
     19091 TIP3     3505     TIP3     H2       HT       0.417000       1.00800           0
     19092 TIP3     3506     TIP3     OH2      OT      -0.834000       15.9994           0
     19093 TIP3     3506     TIP3     H1       HT       0.417000       1.00800           0
     19094 TIP3     3506     TIP3     H2       HT       0.417000       1.00800           0
     19095 TIP3     3507     TIP3     OH2      OT      -0.834000       15.9994           0
     19096 TIP3     3507     TIP3     H1       HT       0.417000       1.00800           0
     19097 TIP3     3507     TIP3     H2       HT       0.417000       1.00800           0
     19098 TIP3     3508     TIP3     OH2      OT      -0.834000       15.9994           0
     19099 TIP3     3508     TIP3     H1       HT       0.417000       1.00800           0
     19100 TIP3     3508     TIP3     H2       HT       0.417000       1.00800           0
     19101 TIP3     3509     TIP3     OH2      OT      -0.834000       15.9994           0
     19102 TIP3     3509     TIP3     H1       HT       0.417000       1.00800           0
     19103 TIP3     3509     TIP3     H2       HT       0.417000       1.00800           0
     19104 TIP3     3510     TIP3     OH2      OT      -0.834000       15.9994           0
     19105 TIP3     3510     TIP3     H1       HT       0.417000       1.00800           0
     19106 TIP3     3510     TIP3     H2       HT       0.417000       1.00800           0
     19107 TIP3     3511     TIP3     OH2      OT      -0.834000       15.9994           0
     19108 TIP3     3511     TIP3     H1       HT       0.417000       1.00800           0
     19109 TIP3     3511     TIP3     H2       HT       0.417000       1.00800           0
     19110 TIP3     3512     TIP3     OH2      OT      -0.834000       15.9994           0
     19111 TIP3     3512     TIP3     H1       HT       0.417000       1.00800           0
     19112 TIP3     3512     TIP3     H2       HT       0.417000       1.00800           0
     19113 TIP3     3513     TIP3     OH2      OT      -0.834000       15.9994           0
     19114 TIP3     3513     TIP3     H1       HT       0.417000       1.00800           0
     19115 TIP3     3513     TIP3     H2       HT       0.417000       1.00800           0
     19116 TIP3     3514     TIP3     OH2      OT      -0.834000       15.9994           0
     19117 TIP3     3514     TIP3     H1       HT       0.417000       1.00800           0
     19118 TIP3     3514     TIP3     H2       HT       0.417000       1.00800           0
     19119 TIP3     3515     TIP3     OH2      OT      -0.834000       15.9994           0
     19120 TIP3     3515     TIP3     H1       HT       0.417000       1.00800           0
     19121 TIP3     3515     TIP3     H2       HT       0.417000       1.00800           0
     19122 TIP3     3516     TIP3     OH2      OT      -0.834000       15.9994           0
     19123 TIP3     3516     TIP3     H1       HT       0.417000       1.00800           0
     19124 TIP3     3516     TIP3     H2       HT       0.417000       1.00800           0
     19125 TIP3     3517     TIP3     OH2      OT      -0.834000       15.9994           0
     19126 TIP3     3517     TIP3     H1       HT       0.417000       1.00800           0
     19127 TIP3     3517     TIP3     H2       HT       0.417000       1.00800           0
     19128 TIP3     3518     TIP3     OH2      OT      -0.834000       15.9994           0
     19129 TIP3     3518     TIP3     H1       HT       0.417000       1.00800           0
     19130 TIP3     3518     TIP3     H2       HT       0.417000       1.00800           0
     19131 TIP3     3519     TIP3     OH2      OT      -0.834000       15.9994           0
     19132 TIP3     3519     TIP3     H1       HT       0.417000       1.00800           0
     19133 TIP3     3519     TIP3     H2       HT       0.417000       1.00800           0
     19134 TIP3     3520     TIP3     OH2      OT      -0.834000       15.9994           0
     19135 TIP3     3520     TIP3     H1       HT       0.417000       1.00800           0
     19136 TIP3     3520     TIP3     H2       HT       0.417000       1.00800           0
     19137 TIP3     3521     TIP3     OH2      OT      -0.834000       15.9994           0
     19138 TIP3     3521     TIP3     H1       HT       0.417000       1.00800           0
     19139 TIP3     3521     TIP3     H2       HT       0.417000       1.00800           0
     19140 TIP3     3522     TIP3     OH2      OT      -0.834000       15.9994           0
     19141 TIP3     3522     TIP3     H1       HT       0.417000       1.00800           0
     19142 TIP3     3522     TIP3     H2       HT       0.417000       1.00800           0
     19143 TIP3     3523     TIP3     OH2      OT      -0.834000       15.9994           0
     19144 TIP3     3523     TIP3     H1       HT       0.417000       1.00800           0
     19145 TIP3     3523     TIP3     H2       HT       0.417000       1.00800           0
     19146 TIP3     3524     TIP3     OH2      OT      -0.834000       15.9994           0
     19147 TIP3     3524     TIP3     H1       HT       0.417000       1.00800           0
     19148 TIP3     3524     TIP3     H2       HT       0.417000       1.00800           0
     19149 TIP3     3525     TIP3     OH2      OT      -0.834000       15.9994           0
     19150 TIP3     3525     TIP3     H1       HT       0.417000       1.00800           0
     19151 TIP3     3525     TIP3     H2       HT       0.417000       1.00800           0
     19152 TIP3     3526     TIP3     OH2      OT      -0.834000       15.9994           0
     19153 TIP3     3526     TIP3     H1       HT       0.417000       1.00800           0
     19154 TIP3     3526     TIP3     H2       HT       0.417000       1.00800           0
     19155 TIP3     3527     TIP3     OH2      OT      -0.834000       15.9994           0
     19156 TIP3     3527     TIP3     H1       HT       0.417000       1.00800           0
     19157 TIP3     3527     TIP3     H2       HT       0.417000       1.00800           0
     19158 TIP3     3528     TIP3     OH2      OT      -0.834000       15.9994           0
     19159 TIP3     3528     TIP3     H1       HT       0.417000       1.00800           0
     19160 TIP3     3528     TIP3     H2       HT       0.417000       1.00800           0
     19161 TIP3     3529     TIP3     OH2      OT      -0.834000       15.9994           0
     19162 TIP3     3529     TIP3     H1       HT       0.417000       1.00800           0
     19163 TIP3     3529     TIP3     H2       HT       0.417000       1.00800           0
     19164 TIP3     3530     TIP3     OH2      OT      -0.834000       15.9994           0
     19165 TIP3     3530     TIP3     H1       HT       0.417000       1.00800           0
     19166 TIP3     3530     TIP3     H2       HT       0.417000       1.00800           0
     19167 TIP3     3531     TIP3     OH2      OT      -0.834000       15.9994           0
     19168 TIP3     3531     TIP3     H1       HT       0.417000       1.00800           0
     19169 TIP3     3531     TIP3     H2       HT       0.417000       1.00800           0
     19170 TIP3     3532     TIP3     OH2      OT      -0.834000       15.9994           0
     19171 TIP3     3532     TIP3     H1       HT       0.417000       1.00800           0
     19172 TIP3     3532     TIP3     H2       HT       0.417000       1.00800           0
     19173 TIP3     3533     TIP3     OH2      OT      -0.834000       15.9994           0
     19174 TIP3     3533     TIP3     H1       HT       0.417000       1.00800           0
     19175 TIP3     3533     TIP3     H2       HT       0.417000       1.00800           0
     19176 TIP3     3534     TIP3     OH2      OT      -0.834000       15.9994           0
     19177 TIP3     3534     TIP3     H1       HT       0.417000       1.00800           0
     19178 TIP3     3534     TIP3     H2       HT       0.417000       1.00800           0
     19179 TIP3     3535     TIP3     OH2      OT      -0.834000       15.9994           0
     19180 TIP3     3535     TIP3     H1       HT       0.417000       1.00800           0
     19181 TIP3     3535     TIP3     H2       HT       0.417000       1.00800           0
     19182 TIP3     3536     TIP3     OH2      OT      -0.834000       15.9994           0
     19183 TIP3     3536     TIP3     H1       HT       0.417000       1.00800           0
     19184 TIP3     3536     TIP3     H2       HT       0.417000       1.00800           0
     19185 TIP3     3537     TIP3     OH2      OT      -0.834000       15.9994           0
     19186 TIP3     3537     TIP3     H1       HT       0.417000       1.00800           0
     19187 TIP3     3537     TIP3     H2       HT       0.417000       1.00800           0
     19188 TIP3     3538     TIP3     OH2      OT      -0.834000       15.9994           0
     19189 TIP3     3538     TIP3     H1       HT       0.417000       1.00800           0
     19190 TIP3     3538     TIP3     H2       HT       0.417000       1.00800           0
     19191 TIP3     3539     TIP3     OH2      OT      -0.834000       15.9994           0
     19192 TIP3     3539     TIP3     H1       HT       0.417000       1.00800           0
     19193 TIP3     3539     TIP3     H2       HT       0.417000       1.00800           0
     19194 TIP3     3540     TIP3     OH2      OT      -0.834000       15.9994           0
     19195 TIP3     3540     TIP3     H1       HT       0.417000       1.00800           0
     19196 TIP3     3540     TIP3     H2       HT       0.417000       1.00800           0
     19197 TIP3     3541     TIP3     OH2      OT      -0.834000       15.9994           0
     19198 TIP3     3541     TIP3     H1       HT       0.417000       1.00800           0
     19199 TIP3     3541     TIP3     H2       HT       0.417000       1.00800           0
     19200 TIP3     3542     TIP3     OH2      OT      -0.834000       15.9994           0
     19201 TIP3     3542     TIP3     H1       HT       0.417000       1.00800           0
     19202 TIP3     3542     TIP3     H2       HT       0.417000       1.00800           0
     19203 TIP3     3543     TIP3     OH2      OT      -0.834000       15.9994           0
     19204 TIP3     3543     TIP3     H1       HT       0.417000       1.00800           0
     19205 TIP3     3543     TIP3     H2       HT       0.417000       1.00800           0
     19206 TIP3     3544     TIP3     OH2      OT      -0.834000       15.9994           0
     19207 TIP3     3544     TIP3     H1       HT       0.417000       1.00800           0
     19208 TIP3     3544     TIP3     H2       HT       0.417000       1.00800           0
     19209 TIP3     3545     TIP3     OH2      OT      -0.834000       15.9994           0
     19210 TIP3     3545     TIP3     H1       HT       0.417000       1.00800           0
     19211 TIP3     3545     TIP3     H2       HT       0.417000       1.00800           0
     19212 TIP3     3546     TIP3     OH2      OT      -0.834000       15.9994           0
     19213 TIP3     3546     TIP3     H1       HT       0.417000       1.00800           0
     19214 TIP3     3546     TIP3     H2       HT       0.417000       1.00800           0
     19215 TIP3     3547     TIP3     OH2      OT      -0.834000       15.9994           0
     19216 TIP3     3547     TIP3     H1       HT       0.417000       1.00800           0
     19217 TIP3     3547     TIP3     H2       HT       0.417000       1.00800           0
     19218 TIP3     3548     TIP3     OH2      OT      -0.834000       15.9994           0
     19219 TIP3     3548     TIP3     H1       HT       0.417000       1.00800           0
     19220 TIP3     3548     TIP3     H2       HT       0.417000       1.00800           0
     19221 TIP3     3549     TIP3     OH2      OT      -0.834000       15.9994           0
     19222 TIP3     3549     TIP3     H1       HT       0.417000       1.00800           0
     19223 TIP3     3549     TIP3     H2       HT       0.417000       1.00800           0
     19224 TIP3     3550     TIP3     OH2      OT      -0.834000       15.9994           0
     19225 TIP3     3550     TIP3     H1       HT       0.417000       1.00800           0
     19226 TIP3     3550     TIP3     H2       HT       0.417000       1.00800           0
     19227 TIP3     3551     TIP3     OH2      OT      -0.834000       15.9994           0
     19228 TIP3     3551     TIP3     H1       HT       0.417000       1.00800           0
     19229 TIP3     3551     TIP3     H2       HT       0.417000       1.00800           0
     19230 TIP3     3552     TIP3     OH2      OT      -0.834000       15.9994           0
     19231 TIP3     3552     TIP3     H1       HT       0.417000       1.00800           0
     19232 TIP3     3552     TIP3     H2       HT       0.417000       1.00800           0
     19233 TIP3     3553     TIP3     OH2      OT      -0.834000       15.9994           0
     19234 TIP3     3553     TIP3     H1       HT       0.417000       1.00800           0
     19235 TIP3     3553     TIP3     H2       HT       0.417000       1.00800           0
     19236 TIP3     3554     TIP3     OH2      OT      -0.834000       15.9994           0
     19237 TIP3     3554     TIP3     H1       HT       0.417000       1.00800           0
     19238 TIP3     3554     TIP3     H2       HT       0.417000       1.00800           0
     19239 TIP3     3555     TIP3     OH2      OT      -0.834000       15.9994           0
     19240 TIP3     3555     TIP3     H1       HT       0.417000       1.00800           0
     19241 TIP3     3555     TIP3     H2       HT       0.417000       1.00800           0
     19242 TIP3     3556     TIP3     OH2      OT      -0.834000       15.9994           0
     19243 TIP3     3556     TIP3     H1       HT       0.417000       1.00800           0
     19244 TIP3     3556     TIP3     H2       HT       0.417000       1.00800           0
     19245 TIP3     3557     TIP3     OH2      OT      -0.834000       15.9994           0
     19246 TIP3     3557     TIP3     H1       HT       0.417000       1.00800           0
     19247 TIP3     3557     TIP3     H2       HT       0.417000       1.00800           0
     19248 TIP3     3558     TIP3     OH2      OT      -0.834000       15.9994           0
     19249 TIP3     3558     TIP3     H1       HT       0.417000       1.00800           0
     19250 TIP3     3558     TIP3     H2       HT       0.417000       1.00800           0
     19251 TIP3     3559     TIP3     OH2      OT      -0.834000       15.9994           0
     19252 TIP3     3559     TIP3     H1       HT       0.417000       1.00800           0
     19253 TIP3     3559     TIP3     H2       HT       0.417000       1.00800           0
     19254 TIP3     3560     TIP3     OH2      OT      -0.834000       15.9994           0
     19255 TIP3     3560     TIP3     H1       HT       0.417000       1.00800           0
     19256 TIP3     3560     TIP3     H2       HT       0.417000       1.00800           0
     19257 TIP3     3561     TIP3     OH2      OT      -0.834000       15.9994           0
     19258 TIP3     3561     TIP3     H1       HT       0.417000       1.00800           0
     19259 TIP3     3561     TIP3     H2       HT       0.417000       1.00800           0
     19260 TIP3     3562     TIP3     OH2      OT      -0.834000       15.9994           0
     19261 TIP3     3562     TIP3     H1       HT       0.417000       1.00800           0
     19262 TIP3     3562     TIP3     H2       HT       0.417000       1.00800           0
     19263 TIP3     3563     TIP3     OH2      OT      -0.834000       15.9994           0
     19264 TIP3     3563     TIP3     H1       HT       0.417000       1.00800           0
     19265 TIP3     3563     TIP3     H2       HT       0.417000       1.00800           0
     19266 TIP3     3564     TIP3     OH2      OT      -0.834000       15.9994           0
     19267 TIP3     3564     TIP3     H1       HT       0.417000       1.00800           0
     19268 TIP3     3564     TIP3     H2       HT       0.417000       1.00800           0
     19269 TIP3     3565     TIP3     OH2      OT      -0.834000       15.9994           0
     19270 TIP3     3565     TIP3     H1       HT       0.417000       1.00800           0
     19271 TIP3     3565     TIP3     H2       HT       0.417000       1.00800           0
     19272 TIP3     3566     TIP3     OH2      OT      -0.834000       15.9994           0
     19273 TIP3     3566     TIP3     H1       HT       0.417000       1.00800           0
     19274 TIP3     3566     TIP3     H2       HT       0.417000       1.00800           0
     19275 TIP3     3567     TIP3     OH2      OT      -0.834000       15.9994           0
     19276 TIP3     3567     TIP3     H1       HT       0.417000       1.00800           0
     19277 TIP3     3567     TIP3     H2       HT       0.417000       1.00800           0
     19278 TIP3     3568     TIP3     OH2      OT      -0.834000       15.9994           0
     19279 TIP3     3568     TIP3     H1       HT       0.417000       1.00800           0
     19280 TIP3     3568     TIP3     H2       HT       0.417000       1.00800           0
     19281 TIP3     3569     TIP3     OH2      OT      -0.834000       15.9994           0
     19282 TIP3     3569     TIP3     H1       HT       0.417000       1.00800           0
     19283 TIP3     3569     TIP3     H2       HT       0.417000       1.00800           0
     19284 TIP3     3570     TIP3     OH2      OT      -0.834000       15.9994           0
     19285 TIP3     3570     TIP3     H1       HT       0.417000       1.00800           0
     19286 TIP3     3570     TIP3     H2       HT       0.417000       1.00800           0
     19287 TIP3     3571     TIP3     OH2      OT      -0.834000       15.9994           0
     19288 TIP3     3571     TIP3     H1       HT       0.417000       1.00800           0
     19289 TIP3     3571     TIP3     H2       HT       0.417000       1.00800           0
     19290 TIP3     3572     TIP3     OH2      OT      -0.834000       15.9994           0
     19291 TIP3     3572     TIP3     H1       HT       0.417000       1.00800           0
     19292 TIP3     3572     TIP3     H2       HT       0.417000       1.00800           0
     19293 TIP3     3573     TIP3     OH2      OT      -0.834000       15.9994           0
     19294 TIP3     3573     TIP3     H1       HT       0.417000       1.00800           0
     19295 TIP3     3573     TIP3     H2       HT       0.417000       1.00800           0
     19296 TIP3     3574     TIP3     OH2      OT      -0.834000       15.9994           0
     19297 TIP3     3574     TIP3     H1       HT       0.417000       1.00800           0
     19298 TIP3     3574     TIP3     H2       HT       0.417000       1.00800           0
     19299 TIP3     3575     TIP3     OH2      OT      -0.834000       15.9994           0
     19300 TIP3     3575     TIP3     H1       HT       0.417000       1.00800           0
     19301 TIP3     3575     TIP3     H2       HT       0.417000       1.00800           0
     19302 TIP3     3576     TIP3     OH2      OT      -0.834000       15.9994           0
     19303 TIP3     3576     TIP3     H1       HT       0.417000       1.00800           0
     19304 TIP3     3576     TIP3     H2       HT       0.417000       1.00800           0
     19305 TIP3     3577     TIP3     OH2      OT      -0.834000       15.9994           0
     19306 TIP3     3577     TIP3     H1       HT       0.417000       1.00800           0
     19307 TIP3     3577     TIP3     H2       HT       0.417000       1.00800           0
     19308 TIP3     3578     TIP3     OH2      OT      -0.834000       15.9994           0
     19309 TIP3     3578     TIP3     H1       HT       0.417000       1.00800           0
     19310 TIP3     3578     TIP3     H2       HT       0.417000       1.00800           0
     19311 TIP3     3579     TIP3     OH2      OT      -0.834000       15.9994           0
     19312 TIP3     3579     TIP3     H1       HT       0.417000       1.00800           0
     19313 TIP3     3579     TIP3     H2       HT       0.417000       1.00800           0
     19314 TIP3     3580     TIP3     OH2      OT      -0.834000       15.9994           0
     19315 TIP3     3580     TIP3     H1       HT       0.417000       1.00800           0
     19316 TIP3     3580     TIP3     H2       HT       0.417000       1.00800           0
     19317 TIP3     3581     TIP3     OH2      OT      -0.834000       15.9994           0
     19318 TIP3     3581     TIP3     H1       HT       0.417000       1.00800           0
     19319 TIP3     3581     TIP3     H2       HT       0.417000       1.00800           0
     19320 TIP3     3582     TIP3     OH2      OT      -0.834000       15.9994           0
     19321 TIP3     3582     TIP3     H1       HT       0.417000       1.00800           0
     19322 TIP3     3582     TIP3     H2       HT       0.417000       1.00800           0
     19323 TIP3     3583     TIP3     OH2      OT      -0.834000       15.9994           0
     19324 TIP3     3583     TIP3     H1       HT       0.417000       1.00800           0
     19325 TIP3     3583     TIP3     H2       HT       0.417000       1.00800           0
     19326 TIP3     3584     TIP3     OH2      OT      -0.834000       15.9994           0
     19327 TIP3     3584     TIP3     H1       HT       0.417000       1.00800           0
     19328 TIP3     3584     TIP3     H2       HT       0.417000       1.00800           0
     19329 TIP3     3585     TIP3     OH2      OT      -0.834000       15.9994           0
     19330 TIP3     3585     TIP3     H1       HT       0.417000       1.00800           0
     19331 TIP3     3585     TIP3     H2       HT       0.417000       1.00800           0
     19332 TIP3     3586     TIP3     OH2      OT      -0.834000       15.9994           0
     19333 TIP3     3586     TIP3     H1       HT       0.417000       1.00800           0
     19334 TIP3     3586     TIP3     H2       HT       0.417000       1.00800           0
     19335 TIP3     3587     TIP3     OH2      OT      -0.834000       15.9994           0
     19336 TIP3     3587     TIP3     H1       HT       0.417000       1.00800           0
     19337 TIP3     3587     TIP3     H2       HT       0.417000       1.00800           0
     19338 TIP3     3588     TIP3     OH2      OT      -0.834000       15.9994           0
     19339 TIP3     3588     TIP3     H1       HT       0.417000       1.00800           0
     19340 TIP3     3588     TIP3     H2       HT       0.417000       1.00800           0
     19341 TIP3     3589     TIP3     OH2      OT      -0.834000       15.9994           0
     19342 TIP3     3589     TIP3     H1       HT       0.417000       1.00800           0
     19343 TIP3     3589     TIP3     H2       HT       0.417000       1.00800           0
     19344 TIP3     3590     TIP3     OH2      OT      -0.834000       15.9994           0
     19345 TIP3     3590     TIP3     H1       HT       0.417000       1.00800           0
     19346 TIP3     3590     TIP3     H2       HT       0.417000       1.00800           0
     19347 TIP3     3591     TIP3     OH2      OT      -0.834000       15.9994           0
     19348 TIP3     3591     TIP3     H1       HT       0.417000       1.00800           0
     19349 TIP3     3591     TIP3     H2       HT       0.417000       1.00800           0
     19350 TIP3     3592     TIP3     OH2      OT      -0.834000       15.9994           0
     19351 TIP3     3592     TIP3     H1       HT       0.417000       1.00800           0
     19352 TIP3     3592     TIP3     H2       HT       0.417000       1.00800           0
     19353 TIP3     3593     TIP3     OH2      OT      -0.834000       15.9994           0
     19354 TIP3     3593     TIP3     H1       HT       0.417000       1.00800           0
     19355 TIP3     3593     TIP3     H2       HT       0.417000       1.00800           0
     19356 TIP3     3594     TIP3     OH2      OT      -0.834000       15.9994           0
     19357 TIP3     3594     TIP3     H1       HT       0.417000       1.00800           0
     19358 TIP3     3594     TIP3     H2       HT       0.417000       1.00800           0
     19359 TIP3     3595     TIP3     OH2      OT      -0.834000       15.9994           0
     19360 TIP3     3595     TIP3     H1       HT       0.417000       1.00800           0
     19361 TIP3     3595     TIP3     H2       HT       0.417000       1.00800           0
     19362 TIP3     3596     TIP3     OH2      OT      -0.834000       15.9994           0
     19363 TIP3     3596     TIP3     H1       HT       0.417000       1.00800           0
     19364 TIP3     3596     TIP3     H2       HT       0.417000       1.00800           0
     19365 TIP3     3597     TIP3     OH2      OT      -0.834000       15.9994           0
     19366 TIP3     3597     TIP3     H1       HT       0.417000       1.00800           0
     19367 TIP3     3597     TIP3     H2       HT       0.417000       1.00800           0
     19368 TIP3     3598     TIP3     OH2      OT      -0.834000       15.9994           0
     19369 TIP3     3598     TIP3     H1       HT       0.417000       1.00800           0
     19370 TIP3     3598     TIP3     H2       HT       0.417000       1.00800           0
     19371 TIP3     3599     TIP3     OH2      OT      -0.834000       15.9994           0
     19372 TIP3     3599     TIP3     H1       HT       0.417000       1.00800           0
     19373 TIP3     3599     TIP3     H2       HT       0.417000       1.00800           0
     19374 TIP3     3600     TIP3     OH2      OT      -0.834000       15.9994           0
     19375 TIP3     3600     TIP3     H1       HT       0.417000       1.00800           0
     19376 TIP3     3600     TIP3     H2       HT       0.417000       1.00800           0
     19377 TIP3     3601     TIP3     OH2      OT      -0.834000       15.9994           0
     19378 TIP3     3601     TIP3     H1       HT       0.417000       1.00800           0
     19379 TIP3     3601     TIP3     H2       HT       0.417000       1.00800           0
     19380 TIP3     3602     TIP3     OH2      OT      -0.834000       15.9994           0
     19381 TIP3     3602     TIP3     H1       HT       0.417000       1.00800           0
     19382 TIP3     3602     TIP3     H2       HT       0.417000       1.00800           0
     19383 TIP3     3603     TIP3     OH2      OT      -0.834000       15.9994           0
     19384 TIP3     3603     TIP3     H1       HT       0.417000       1.00800           0
     19385 TIP3     3603     TIP3     H2       HT       0.417000       1.00800           0
     19386 TIP3     3604     TIP3     OH2      OT      -0.834000       15.9994           0
     19387 TIP3     3604     TIP3     H1       HT       0.417000       1.00800           0
     19388 TIP3     3604     TIP3     H2       HT       0.417000       1.00800           0
     19389 TIP3     3605     TIP3     OH2      OT      -0.834000       15.9994           0
     19390 TIP3     3605     TIP3     H1       HT       0.417000       1.00800           0
     19391 TIP3     3605     TIP3     H2       HT       0.417000       1.00800           0
     19392 TIP3     3606     TIP3     OH2      OT      -0.834000       15.9994           0
     19393 TIP3     3606     TIP3     H1       HT       0.417000       1.00800           0
     19394 TIP3     3606     TIP3     H2       HT       0.417000       1.00800           0
     19395 TIP3     3607     TIP3     OH2      OT      -0.834000       15.9994           0
     19396 TIP3     3607     TIP3     H1       HT       0.417000       1.00800           0
     19397 TIP3     3607     TIP3     H2       HT       0.417000       1.00800           0
     19398 TIP3     3608     TIP3     OH2      OT      -0.834000       15.9994           0
     19399 TIP3     3608     TIP3     H1       HT       0.417000       1.00800           0
     19400 TIP3     3608     TIP3     H2       HT       0.417000       1.00800           0
     19401 TIP3     3609     TIP3     OH2      OT      -0.834000       15.9994           0
     19402 TIP3     3609     TIP3     H1       HT       0.417000       1.00800           0
     19403 TIP3     3609     TIP3     H2       HT       0.417000       1.00800           0
     19404 TIP3     3610     TIP3     OH2      OT      -0.834000       15.9994           0
     19405 TIP3     3610     TIP3     H1       HT       0.417000       1.00800           0
     19406 TIP3     3610     TIP3     H2       HT       0.417000       1.00800           0
     19407 TIP3     3611     TIP3     OH2      OT      -0.834000       15.9994           0
     19408 TIP3     3611     TIP3     H1       HT       0.417000       1.00800           0
     19409 TIP3     3611     TIP3     H2       HT       0.417000       1.00800           0
     19410 TIP3     3612     TIP3     OH2      OT      -0.834000       15.9994           0
     19411 TIP3     3612     TIP3     H1       HT       0.417000       1.00800           0
     19412 TIP3     3612     TIP3     H2       HT       0.417000       1.00800           0
     19413 TIP3     3613     TIP3     OH2      OT      -0.834000       15.9994           0
     19414 TIP3     3613     TIP3     H1       HT       0.417000       1.00800           0
     19415 TIP3     3613     TIP3     H2       HT       0.417000       1.00800           0
     19416 TIP3     3614     TIP3     OH2      OT      -0.834000       15.9994           0
     19417 TIP3     3614     TIP3     H1       HT       0.417000       1.00800           0
     19418 TIP3     3614     TIP3     H2       HT       0.417000       1.00800           0
     19419 TIP3     3615     TIP3     OH2      OT      -0.834000       15.9994           0
     19420 TIP3     3615     TIP3     H1       HT       0.417000       1.00800           0
     19421 TIP3     3615     TIP3     H2       HT       0.417000       1.00800           0
     19422 TIP3     3616     TIP3     OH2      OT      -0.834000       15.9994           0
     19423 TIP3     3616     TIP3     H1       HT       0.417000       1.00800           0
     19424 TIP3     3616     TIP3     H2       HT       0.417000       1.00800           0
     19425 TIP3     3617     TIP3     OH2      OT      -0.834000       15.9994           0
     19426 TIP3     3617     TIP3     H1       HT       0.417000       1.00800           0
     19427 TIP3     3617     TIP3     H2       HT       0.417000       1.00800           0
     19428 TIP3     3618     TIP3     OH2      OT      -0.834000       15.9994           0
     19429 TIP3     3618     TIP3     H1       HT       0.417000       1.00800           0
     19430 TIP3     3618     TIP3     H2       HT       0.417000       1.00800           0
     19431 TIP3     3619     TIP3     OH2      OT      -0.834000       15.9994           0
     19432 TIP3     3619     TIP3     H1       HT       0.417000       1.00800           0
     19433 TIP3     3619     TIP3     H2       HT       0.417000       1.00800           0
     19434 TIP3     3620     TIP3     OH2      OT      -0.834000       15.9994           0
     19435 TIP3     3620     TIP3     H1       HT       0.417000       1.00800           0
     19436 TIP3     3620     TIP3     H2       HT       0.417000       1.00800           0
     19437 TIP3     3621     TIP3     OH2      OT      -0.834000       15.9994           0
     19438 TIP3     3621     TIP3     H1       HT       0.417000       1.00800           0
     19439 TIP3     3621     TIP3     H2       HT       0.417000       1.00800           0
     19440 TIP3     3622     TIP3     OH2      OT      -0.834000       15.9994           0
     19441 TIP3     3622     TIP3     H1       HT       0.417000       1.00800           0
     19442 TIP3     3622     TIP3     H2       HT       0.417000       1.00800           0
     19443 TIP3     3623     TIP3     OH2      OT      -0.834000       15.9994           0
     19444 TIP3     3623     TIP3     H1       HT       0.417000       1.00800           0
     19445 TIP3     3623     TIP3     H2       HT       0.417000       1.00800           0
     19446 TIP3     3624     TIP3     OH2      OT      -0.834000       15.9994           0
     19447 TIP3     3624     TIP3     H1       HT       0.417000       1.00800           0
     19448 TIP3     3624     TIP3     H2       HT       0.417000       1.00800           0
     19449 TIP3     3625     TIP3     OH2      OT      -0.834000       15.9994           0
     19450 TIP3     3625     TIP3     H1       HT       0.417000       1.00800           0
     19451 TIP3     3625     TIP3     H2       HT       0.417000       1.00800           0
     19452 TIP3     3626     TIP3     OH2      OT      -0.834000       15.9994           0
     19453 TIP3     3626     TIP3     H1       HT       0.417000       1.00800           0
     19454 TIP3     3626     TIP3     H2       HT       0.417000       1.00800           0
     19455 TIP3     3627     TIP3     OH2      OT      -0.834000       15.9994           0
     19456 TIP3     3627     TIP3     H1       HT       0.417000       1.00800           0
     19457 TIP3     3627     TIP3     H2       HT       0.417000       1.00800           0
     19458 TIP3     3628     TIP3     OH2      OT      -0.834000       15.9994           0
     19459 TIP3     3628     TIP3     H1       HT       0.417000       1.00800           0
     19460 TIP3     3628     TIP3     H2       HT       0.417000       1.00800           0
     19461 TIP3     3629     TIP3     OH2      OT      -0.834000       15.9994           0
     19462 TIP3     3629     TIP3     H1       HT       0.417000       1.00800           0
     19463 TIP3     3629     TIP3     H2       HT       0.417000       1.00800           0
     19464 TIP3     3630     TIP3     OH2      OT      -0.834000       15.9994           0
     19465 TIP3     3630     TIP3     H1       HT       0.417000       1.00800           0
     19466 TIP3     3630     TIP3     H2       HT       0.417000       1.00800           0
     19467 TIP3     3631     TIP3     OH2      OT      -0.834000       15.9994           0
     19468 TIP3     3631     TIP3     H1       HT       0.417000       1.00800           0
     19469 TIP3     3631     TIP3     H2       HT       0.417000       1.00800           0
     19470 TIP3     3632     TIP3     OH2      OT      -0.834000       15.9994           0
     19471 TIP3     3632     TIP3     H1       HT       0.417000       1.00800           0
     19472 TIP3     3632     TIP3     H2       HT       0.417000       1.00800           0
     19473 TIP3     3633     TIP3     OH2      OT      -0.834000       15.9994           0
     19474 TIP3     3633     TIP3     H1       HT       0.417000       1.00800           0
     19475 TIP3     3633     TIP3     H2       HT       0.417000       1.00800           0
     19476 TIP3     3634     TIP3     OH2      OT      -0.834000       15.9994           0
     19477 TIP3     3634     TIP3     H1       HT       0.417000       1.00800           0
     19478 TIP3     3634     TIP3     H2       HT       0.417000       1.00800           0
     19479 TIP3     3635     TIP3     OH2      OT      -0.834000       15.9994           0
     19480 TIP3     3635     TIP3     H1       HT       0.417000       1.00800           0
     19481 TIP3     3635     TIP3     H2       HT       0.417000       1.00800           0
     19482 TIP3     3636     TIP3     OH2      OT      -0.834000       15.9994           0
     19483 TIP3     3636     TIP3     H1       HT       0.417000       1.00800           0
     19484 TIP3     3636     TIP3     H2       HT       0.417000       1.00800           0
     19485 TIP3     3637     TIP3     OH2      OT      -0.834000       15.9994           0
     19486 TIP3     3637     TIP3     H1       HT       0.417000       1.00800           0
     19487 TIP3     3637     TIP3     H2       HT       0.417000       1.00800           0
     19488 TIP3     3638     TIP3     OH2      OT      -0.834000       15.9994           0
     19489 TIP3     3638     TIP3     H1       HT       0.417000       1.00800           0
     19490 TIP3     3638     TIP3     H2       HT       0.417000       1.00800           0
     19491 TIP3     3639     TIP3     OH2      OT      -0.834000       15.9994           0
     19492 TIP3     3639     TIP3     H1       HT       0.417000       1.00800           0
     19493 TIP3     3639     TIP3     H2       HT       0.417000       1.00800           0
     19494 TIP3     3640     TIP3     OH2      OT      -0.834000       15.9994           0
     19495 TIP3     3640     TIP3     H1       HT       0.417000       1.00800           0
     19496 TIP3     3640     TIP3     H2       HT       0.417000       1.00800           0
     19497 TIP3     3641     TIP3     OH2      OT      -0.834000       15.9994           0
     19498 TIP3     3641     TIP3     H1       HT       0.417000       1.00800           0
     19499 TIP3     3641     TIP3     H2       HT       0.417000       1.00800           0
     19500 TIP3     3642     TIP3     OH2      OT      -0.834000       15.9994           0
     19501 TIP3     3642     TIP3     H1       HT       0.417000       1.00800           0
     19502 TIP3     3642     TIP3     H2       HT       0.417000       1.00800           0
     19503 TIP3     3643     TIP3     OH2      OT      -0.834000       15.9994           0
     19504 TIP3     3643     TIP3     H1       HT       0.417000       1.00800           0
     19505 TIP3     3643     TIP3     H2       HT       0.417000       1.00800           0
     19506 TIP3     3644     TIP3     OH2      OT      -0.834000       15.9994           0
     19507 TIP3     3644     TIP3     H1       HT       0.417000       1.00800           0
     19508 TIP3     3644     TIP3     H2       HT       0.417000       1.00800           0
     19509 TIP3     3645     TIP3     OH2      OT      -0.834000       15.9994           0
     19510 TIP3     3645     TIP3     H1       HT       0.417000       1.00800           0
     19511 TIP3     3645     TIP3     H2       HT       0.417000       1.00800           0
     19512 TIP3     3646     TIP3     OH2      OT      -0.834000       15.9994           0
     19513 TIP3     3646     TIP3     H1       HT       0.417000       1.00800           0
     19514 TIP3     3646     TIP3     H2       HT       0.417000       1.00800           0
     19515 TIP3     3647     TIP3     OH2      OT      -0.834000       15.9994           0
     19516 TIP3     3647     TIP3     H1       HT       0.417000       1.00800           0
     19517 TIP3     3647     TIP3     H2       HT       0.417000       1.00800           0
     19518 TIP3     3648     TIP3     OH2      OT      -0.834000       15.9994           0
     19519 TIP3     3648     TIP3     H1       HT       0.417000       1.00800           0
     19520 TIP3     3648     TIP3     H2       HT       0.417000       1.00800           0
     19521 TIP3     3649     TIP3     OH2      OT      -0.834000       15.9994           0
     19522 TIP3     3649     TIP3     H1       HT       0.417000       1.00800           0
     19523 TIP3     3649     TIP3     H2       HT       0.417000       1.00800           0
     19524 TIP3     3650     TIP3     OH2      OT      -0.834000       15.9994           0
     19525 TIP3     3650     TIP3     H1       HT       0.417000       1.00800           0
     19526 TIP3     3650     TIP3     H2       HT       0.417000       1.00800           0
     19527 TIP3     3651     TIP3     OH2      OT      -0.834000       15.9994           0
     19528 TIP3     3651     TIP3     H1       HT       0.417000       1.00800           0
     19529 TIP3     3651     TIP3     H2       HT       0.417000       1.00800           0
     19530 TIP3     3652     TIP3     OH2      OT      -0.834000       15.9994           0
     19531 TIP3     3652     TIP3     H1       HT       0.417000       1.00800           0
     19532 TIP3     3652     TIP3     H2       HT       0.417000       1.00800           0
     19533 TIP3     3653     TIP3     OH2      OT      -0.834000       15.9994           0
     19534 TIP3     3653     TIP3     H1       HT       0.417000       1.00800           0
     19535 TIP3     3653     TIP3     H2       HT       0.417000       1.00800           0
     19536 TIP3     3654     TIP3     OH2      OT      -0.834000       15.9994           0
     19537 TIP3     3654     TIP3     H1       HT       0.417000       1.00800           0
     19538 TIP3     3654     TIP3     H2       HT       0.417000       1.00800           0
     19539 TIP3     3655     TIP3     OH2      OT      -0.834000       15.9994           0
     19540 TIP3     3655     TIP3     H1       HT       0.417000       1.00800           0
     19541 TIP3     3655     TIP3     H2       HT       0.417000       1.00800           0
     19542 TIP3     3656     TIP3     OH2      OT      -0.834000       15.9994           0
     19543 TIP3     3656     TIP3     H1       HT       0.417000       1.00800           0
     19544 TIP3     3656     TIP3     H2       HT       0.417000       1.00800           0
     19545 TIP3     3657     TIP3     OH2      OT      -0.834000       15.9994           0
     19546 TIP3     3657     TIP3     H1       HT       0.417000       1.00800           0
     19547 TIP3     3657     TIP3     H2       HT       0.417000       1.00800           0
     19548 TIP3     3658     TIP3     OH2      OT      -0.834000       15.9994           0
     19549 TIP3     3658     TIP3     H1       HT       0.417000       1.00800           0
     19550 TIP3     3658     TIP3     H2       HT       0.417000       1.00800           0
     19551 TIP3     3659     TIP3     OH2      OT      -0.834000       15.9994           0
     19552 TIP3     3659     TIP3     H1       HT       0.417000       1.00800           0
     19553 TIP3     3659     TIP3     H2       HT       0.417000       1.00800           0
     19554 TIP3     3660     TIP3     OH2      OT      -0.834000       15.9994           0
     19555 TIP3     3660     TIP3     H1       HT       0.417000       1.00800           0
     19556 TIP3     3660     TIP3     H2       HT       0.417000       1.00800           0
     19557 TIP3     3661     TIP3     OH2      OT      -0.834000       15.9994           0
     19558 TIP3     3661     TIP3     H1       HT       0.417000       1.00800           0
     19559 TIP3     3661     TIP3     H2       HT       0.417000       1.00800           0
     19560 TIP3     3662     TIP3     OH2      OT      -0.834000       15.9994           0
     19561 TIP3     3662     TIP3     H1       HT       0.417000       1.00800           0
     19562 TIP3     3662     TIP3     H2       HT       0.417000       1.00800           0
     19563 TIP3     3663     TIP3     OH2      OT      -0.834000       15.9994           0
     19564 TIP3     3663     TIP3     H1       HT       0.417000       1.00800           0
     19565 TIP3     3663     TIP3     H2       HT       0.417000       1.00800           0
     19566 TIP3     3664     TIP3     OH2      OT      -0.834000       15.9994           0
     19567 TIP3     3664     TIP3     H1       HT       0.417000       1.00800           0
     19568 TIP3     3664     TIP3     H2       HT       0.417000       1.00800           0
     19569 TIP3     3665     TIP3     OH2      OT      -0.834000       15.9994           0
     19570 TIP3     3665     TIP3     H1       HT       0.417000       1.00800           0
     19571 TIP3     3665     TIP3     H2       HT       0.417000       1.00800           0
     19572 TIP3     3666     TIP3     OH2      OT      -0.834000       15.9994           0
     19573 TIP3     3666     TIP3     H1       HT       0.417000       1.00800           0
     19574 TIP3     3666     TIP3     H2       HT       0.417000       1.00800           0
     19575 TIP3     3667     TIP3     OH2      OT      -0.834000       15.9994           0
     19576 TIP3     3667     TIP3     H1       HT       0.417000       1.00800           0
     19577 TIP3     3667     TIP3     H2       HT       0.417000       1.00800           0
     19578 TIP3     3668     TIP3     OH2      OT      -0.834000       15.9994           0
     19579 TIP3     3668     TIP3     H1       HT       0.417000       1.00800           0
     19580 TIP3     3668     TIP3     H2       HT       0.417000       1.00800           0
     19581 TIP3     3669     TIP3     OH2      OT      -0.834000       15.9994           0
     19582 TIP3     3669     TIP3     H1       HT       0.417000       1.00800           0
     19583 TIP3     3669     TIP3     H2       HT       0.417000       1.00800           0
     19584 TIP3     3670     TIP3     OH2      OT      -0.834000       15.9994           0
     19585 TIP3     3670     TIP3     H1       HT       0.417000       1.00800           0
     19586 TIP3     3670     TIP3     H2       HT       0.417000       1.00800           0
     19587 TIP3     3671     TIP3     OH2      OT      -0.834000       15.9994           0
     19588 TIP3     3671     TIP3     H1       HT       0.417000       1.00800           0
     19589 TIP3     3671     TIP3     H2       HT       0.417000       1.00800           0
     19590 TIP3     3672     TIP3     OH2      OT      -0.834000       15.9994           0
     19591 TIP3     3672     TIP3     H1       HT       0.417000       1.00800           0
     19592 TIP3     3672     TIP3     H2       HT       0.417000       1.00800           0
     19593 TIP3     3673     TIP3     OH2      OT      -0.834000       15.9994           0
     19594 TIP3     3673     TIP3     H1       HT       0.417000       1.00800           0
     19595 TIP3     3673     TIP3     H2       HT       0.417000       1.00800           0
     19596 TIP3     3674     TIP3     OH2      OT      -0.834000       15.9994           0
     19597 TIP3     3674     TIP3     H1       HT       0.417000       1.00800           0
     19598 TIP3     3674     TIP3     H2       HT       0.417000       1.00800           0
     19599 TIP3     3675     TIP3     OH2      OT      -0.834000       15.9994           0
     19600 TIP3     3675     TIP3     H1       HT       0.417000       1.00800           0
     19601 TIP3     3675     TIP3     H2       HT       0.417000       1.00800           0
     19602 TIP3     3676     TIP3     OH2      OT      -0.834000       15.9994           0
     19603 TIP3     3676     TIP3     H1       HT       0.417000       1.00800           0
     19604 TIP3     3676     TIP3     H2       HT       0.417000       1.00800           0
     19605 TIP3     3677     TIP3     OH2      OT      -0.834000       15.9994           0
     19606 TIP3     3677     TIP3     H1       HT       0.417000       1.00800           0
     19607 TIP3     3677     TIP3     H2       HT       0.417000       1.00800           0
     19608 TIP3     3678     TIP3     OH2      OT      -0.834000       15.9994           0
     19609 TIP3     3678     TIP3     H1       HT       0.417000       1.00800           0
     19610 TIP3     3678     TIP3     H2       HT       0.417000       1.00800           0
     19611 TIP3     3679     TIP3     OH2      OT      -0.834000       15.9994           0
     19612 TIP3     3679     TIP3     H1       HT       0.417000       1.00800           0
     19613 TIP3     3679     TIP3     H2       HT       0.417000       1.00800           0
     19614 TIP3     3680     TIP3     OH2      OT      -0.834000       15.9994           0
     19615 TIP3     3680     TIP3     H1       HT       0.417000       1.00800           0
     19616 TIP3     3680     TIP3     H2       HT       0.417000       1.00800           0
     19617 TIP3     3681     TIP3     OH2      OT      -0.834000       15.9994           0
     19618 TIP3     3681     TIP3     H1       HT       0.417000       1.00800           0
     19619 TIP3     3681     TIP3     H2       HT       0.417000       1.00800           0
     19620 TIP3     3682     TIP3     OH2      OT      -0.834000       15.9994           0
     19621 TIP3     3682     TIP3     H1       HT       0.417000       1.00800           0
     19622 TIP3     3682     TIP3     H2       HT       0.417000       1.00800           0
     19623 TIP3     3683     TIP3     OH2      OT      -0.834000       15.9994           0
     19624 TIP3     3683     TIP3     H1       HT       0.417000       1.00800           0
     19625 TIP3     3683     TIP3     H2       HT       0.417000       1.00800           0
     19626 TIP3     3684     TIP3     OH2      OT      -0.834000       15.9994           0
     19627 TIP3     3684     TIP3     H1       HT       0.417000       1.00800           0
     19628 TIP3     3684     TIP3     H2       HT       0.417000       1.00800           0
     19629 TIP3     3685     TIP3     OH2      OT      -0.834000       15.9994           0
     19630 TIP3     3685     TIP3     H1       HT       0.417000       1.00800           0
     19631 TIP3     3685     TIP3     H2       HT       0.417000       1.00800           0
     19632 TIP3     3686     TIP3     OH2      OT      -0.834000       15.9994           0
     19633 TIP3     3686     TIP3     H1       HT       0.417000       1.00800           0
     19634 TIP3     3686     TIP3     H2       HT       0.417000       1.00800           0
     19635 TIP3     3687     TIP3     OH2      OT      -0.834000       15.9994           0
     19636 TIP3     3687     TIP3     H1       HT       0.417000       1.00800           0
     19637 TIP3     3687     TIP3     H2       HT       0.417000       1.00800           0
     19638 TIP3     3688     TIP3     OH2      OT      -0.834000       15.9994           0
     19639 TIP3     3688     TIP3     H1       HT       0.417000       1.00800           0
     19640 TIP3     3688     TIP3     H2       HT       0.417000       1.00800           0
     19641 TIP3     3689     TIP3     OH2      OT      -0.834000       15.9994           0
     19642 TIP3     3689     TIP3     H1       HT       0.417000       1.00800           0
     19643 TIP3     3689     TIP3     H2       HT       0.417000       1.00800           0
     19644 TIP3     3690     TIP3     OH2      OT      -0.834000       15.9994           0
     19645 TIP3     3690     TIP3     H1       HT       0.417000       1.00800           0
     19646 TIP3     3690     TIP3     H2       HT       0.417000       1.00800           0
     19647 TIP3     3691     TIP3     OH2      OT      -0.834000       15.9994           0
     19648 TIP3     3691     TIP3     H1       HT       0.417000       1.00800           0
     19649 TIP3     3691     TIP3     H2       HT       0.417000       1.00800           0
     19650 TIP3     3692     TIP3     OH2      OT      -0.834000       15.9994           0
     19651 TIP3     3692     TIP3     H1       HT       0.417000       1.00800           0
     19652 TIP3     3692     TIP3     H2       HT       0.417000       1.00800           0
     19653 TIP3     3693     TIP3     OH2      OT      -0.834000       15.9994           0
     19654 TIP3     3693     TIP3     H1       HT       0.417000       1.00800           0
     19655 TIP3     3693     TIP3     H2       HT       0.417000       1.00800           0
     19656 TIP3     3694     TIP3     OH2      OT      -0.834000       15.9994           0
     19657 TIP3     3694     TIP3     H1       HT       0.417000       1.00800           0
     19658 TIP3     3694     TIP3     H2       HT       0.417000       1.00800           0
     19659 TIP3     3695     TIP3     OH2      OT      -0.834000       15.9994           0
     19660 TIP3     3695     TIP3     H1       HT       0.417000       1.00800           0
     19661 TIP3     3695     TIP3     H2       HT       0.417000       1.00800           0
     19662 TIP3     3696     TIP3     OH2      OT      -0.834000       15.9994           0
     19663 TIP3     3696     TIP3     H1       HT       0.417000       1.00800           0
     19664 TIP3     3696     TIP3     H2       HT       0.417000       1.00800           0
     19665 TIP3     3697     TIP3     OH2      OT      -0.834000       15.9994           0
     19666 TIP3     3697     TIP3     H1       HT       0.417000       1.00800           0
     19667 TIP3     3697     TIP3     H2       HT       0.417000       1.00800           0
     19668 TIP3     3698     TIP3     OH2      OT      -0.834000       15.9994           0
     19669 TIP3     3698     TIP3     H1       HT       0.417000       1.00800           0
     19670 TIP3     3698     TIP3     H2       HT       0.417000       1.00800           0
     19671 TIP3     3699     TIP3     OH2      OT      -0.834000       15.9994           0
     19672 TIP3     3699     TIP3     H1       HT       0.417000       1.00800           0
     19673 TIP3     3699     TIP3     H2       HT       0.417000       1.00800           0
     19674 TIP3     3700     TIP3     OH2      OT      -0.834000       15.9994           0
     19675 TIP3     3700     TIP3     H1       HT       0.417000       1.00800           0
     19676 TIP3     3700     TIP3     H2       HT       0.417000       1.00800           0
     19677 TIP3     3701     TIP3     OH2      OT      -0.834000       15.9994           0
     19678 TIP3     3701     TIP3     H1       HT       0.417000       1.00800           0
     19679 TIP3     3701     TIP3     H2       HT       0.417000       1.00800           0
     19680 TIP3     3702     TIP3     OH2      OT      -0.834000       15.9994           0
     19681 TIP3     3702     TIP3     H1       HT       0.417000       1.00800           0
     19682 TIP3     3702     TIP3     H2       HT       0.417000       1.00800           0
     19683 TIP3     3703     TIP3     OH2      OT      -0.834000       15.9994           0
     19684 TIP3     3703     TIP3     H1       HT       0.417000       1.00800           0
     19685 TIP3     3703     TIP3     H2       HT       0.417000       1.00800           0
     19686 TIP3     3704     TIP3     OH2      OT      -0.834000       15.9994           0
     19687 TIP3     3704     TIP3     H1       HT       0.417000       1.00800           0
     19688 TIP3     3704     TIP3     H2       HT       0.417000       1.00800           0
     19689 TIP3     3705     TIP3     OH2      OT      -0.834000       15.9994           0
     19690 TIP3     3705     TIP3     H1       HT       0.417000       1.00800           0
     19691 TIP3     3705     TIP3     H2       HT       0.417000       1.00800           0
     19692 TIP3     3706     TIP3     OH2      OT      -0.834000       15.9994           0
     19693 TIP3     3706     TIP3     H1       HT       0.417000       1.00800           0
     19694 TIP3     3706     TIP3     H2       HT       0.417000       1.00800           0
     19695 TIP3     3707     TIP3     OH2      OT      -0.834000       15.9994           0
     19696 TIP3     3707     TIP3     H1       HT       0.417000       1.00800           0
     19697 TIP3     3707     TIP3     H2       HT       0.417000       1.00800           0
     19698 TIP3     3708     TIP3     OH2      OT      -0.834000       15.9994           0
     19699 TIP3     3708     TIP3     H1       HT       0.417000       1.00800           0
     19700 TIP3     3708     TIP3     H2       HT       0.417000       1.00800           0
     19701 TIP3     3709     TIP3     OH2      OT      -0.834000       15.9994           0
     19702 TIP3     3709     TIP3     H1       HT       0.417000       1.00800           0
     19703 TIP3     3709     TIP3     H2       HT       0.417000       1.00800           0
     19704 TIP3     3710     TIP3     OH2      OT      -0.834000       15.9994           0
     19705 TIP3     3710     TIP3     H1       HT       0.417000       1.00800           0
     19706 TIP3     3710     TIP3     H2       HT       0.417000       1.00800           0
     19707 TIP3     3711     TIP3     OH2      OT      -0.834000       15.9994           0
     19708 TIP3     3711     TIP3     H1       HT       0.417000       1.00800           0
     19709 TIP3     3711     TIP3     H2       HT       0.417000       1.00800           0
     19710 TIP3     3712     TIP3     OH2      OT      -0.834000       15.9994           0
     19711 TIP3     3712     TIP3     H1       HT       0.417000       1.00800           0
     19712 TIP3     3712     TIP3     H2       HT       0.417000       1.00800           0
     19713 TIP3     3713     TIP3     OH2      OT      -0.834000       15.9994           0
     19714 TIP3     3713     TIP3     H1       HT       0.417000       1.00800           0
     19715 TIP3     3713     TIP3     H2       HT       0.417000       1.00800           0
     19716 TIP3     3714     TIP3     OH2      OT      -0.834000       15.9994           0
     19717 TIP3     3714     TIP3     H1       HT       0.417000       1.00800           0
     19718 TIP3     3714     TIP3     H2       HT       0.417000       1.00800           0
     19719 TIP3     3715     TIP3     OH2      OT      -0.834000       15.9994           0
     19720 TIP3     3715     TIP3     H1       HT       0.417000       1.00800           0
     19721 TIP3     3715     TIP3     H2       HT       0.417000       1.00800           0
     19722 TIP3     3716     TIP3     OH2      OT      -0.834000       15.9994           0
     19723 TIP3     3716     TIP3     H1       HT       0.417000       1.00800           0
     19724 TIP3     3716     TIP3     H2       HT       0.417000       1.00800           0
     19725 TIP3     3717     TIP3     OH2      OT      -0.834000       15.9994           0
     19726 TIP3     3717     TIP3     H1       HT       0.417000       1.00800           0
     19727 TIP3     3717     TIP3     H2       HT       0.417000       1.00800           0
     19728 TIP3     3718     TIP3     OH2      OT      -0.834000       15.9994           0
     19729 TIP3     3718     TIP3     H1       HT       0.417000       1.00800           0
     19730 TIP3     3718     TIP3     H2       HT       0.417000       1.00800           0
     19731 TIP3     3719     TIP3     OH2      OT      -0.834000       15.9994           0
     19732 TIP3     3719     TIP3     H1       HT       0.417000       1.00800           0
     19733 TIP3     3719     TIP3     H2       HT       0.417000       1.00800           0
     19734 TIP3     3720     TIP3     OH2      OT      -0.834000       15.9994           0
     19735 TIP3     3720     TIP3     H1       HT       0.417000       1.00800           0
     19736 TIP3     3720     TIP3     H2       HT       0.417000       1.00800           0
     19737 TIP3     3721     TIP3     OH2      OT      -0.834000       15.9994           0
     19738 TIP3     3721     TIP3     H1       HT       0.417000       1.00800           0
     19739 TIP3     3721     TIP3     H2       HT       0.417000       1.00800           0
     19740 TIP3     3722     TIP3     OH2      OT      -0.834000       15.9994           0
     19741 TIP3     3722     TIP3     H1       HT       0.417000       1.00800           0
     19742 TIP3     3722     TIP3     H2       HT       0.417000       1.00800           0
     19743 TIP3     3723     TIP3     OH2      OT      -0.834000       15.9994           0
     19744 TIP3     3723     TIP3     H1       HT       0.417000       1.00800           0
     19745 TIP3     3723     TIP3     H2       HT       0.417000       1.00800           0
     19746 TIP3     3724     TIP3     OH2      OT      -0.834000       15.9994           0
     19747 TIP3     3724     TIP3     H1       HT       0.417000       1.00800           0
     19748 TIP3     3724     TIP3     H2       HT       0.417000       1.00800           0
     19749 TIP3     3725     TIP3     OH2      OT      -0.834000       15.9994           0
     19750 TIP3     3725     TIP3     H1       HT       0.417000       1.00800           0
     19751 TIP3     3725     TIP3     H2       HT       0.417000       1.00800           0
     19752 TIP3     3726     TIP3     OH2      OT      -0.834000       15.9994           0
     19753 TIP3     3726     TIP3     H1       HT       0.417000       1.00800           0
     19754 TIP3     3726     TIP3     H2       HT       0.417000       1.00800           0
     19755 TIP3     3727     TIP3     OH2      OT      -0.834000       15.9994           0
     19756 TIP3     3727     TIP3     H1       HT       0.417000       1.00800           0
     19757 TIP3     3727     TIP3     H2       HT       0.417000       1.00800           0
     19758 TIP3     3728     TIP3     OH2      OT      -0.834000       15.9994           0
     19759 TIP3     3728     TIP3     H1       HT       0.417000       1.00800           0
     19760 TIP3     3728     TIP3     H2       HT       0.417000       1.00800           0
     19761 TIP3     3729     TIP3     OH2      OT      -0.834000       15.9994           0
     19762 TIP3     3729     TIP3     H1       HT       0.417000       1.00800           0
     19763 TIP3     3729     TIP3     H2       HT       0.417000       1.00800           0
     19764 TIP3     3730     TIP3     OH2      OT      -0.834000       15.9994           0
     19765 TIP3     3730     TIP3     H1       HT       0.417000       1.00800           0
     19766 TIP3     3730     TIP3     H2       HT       0.417000       1.00800           0
     19767 TIP3     3731     TIP3     OH2      OT      -0.834000       15.9994           0
     19768 TIP3     3731     TIP3     H1       HT       0.417000       1.00800           0
     19769 TIP3     3731     TIP3     H2       HT       0.417000       1.00800           0
     19770 TIP3     3732     TIP3     OH2      OT      -0.834000       15.9994           0
     19771 TIP3     3732     TIP3     H1       HT       0.417000       1.00800           0
     19772 TIP3     3732     TIP3     H2       HT       0.417000       1.00800           0
     19773 TIP3     3733     TIP3     OH2      OT      -0.834000       15.9994           0
     19774 TIP3     3733     TIP3     H1       HT       0.417000       1.00800           0
     19775 TIP3     3733     TIP3     H2       HT       0.417000       1.00800           0
     19776 TIP3     3734     TIP3     OH2      OT      -0.834000       15.9994           0
     19777 TIP3     3734     TIP3     H1       HT       0.417000       1.00800           0
     19778 TIP3     3734     TIP3     H2       HT       0.417000       1.00800           0
     19779 TIP3     3735     TIP3     OH2      OT      -0.834000       15.9994           0
     19780 TIP3     3735     TIP3     H1       HT       0.417000       1.00800           0
     19781 TIP3     3735     TIP3     H2       HT       0.417000       1.00800           0
     19782 TIP3     3736     TIP3     OH2      OT      -0.834000       15.9994           0
     19783 TIP3     3736     TIP3     H1       HT       0.417000       1.00800           0
     19784 TIP3     3736     TIP3     H2       HT       0.417000       1.00800           0
     19785 TIP3     3737     TIP3     OH2      OT      -0.834000       15.9994           0
     19786 TIP3     3737     TIP3     H1       HT       0.417000       1.00800           0
     19787 TIP3     3737     TIP3     H2       HT       0.417000       1.00800           0
     19788 TIP3     3738     TIP3     OH2      OT      -0.834000       15.9994           0
     19789 TIP3     3738     TIP3     H1       HT       0.417000       1.00800           0
     19790 TIP3     3738     TIP3     H2       HT       0.417000       1.00800           0
     19791 TIP3     3739     TIP3     OH2      OT      -0.834000       15.9994           0
     19792 TIP3     3739     TIP3     H1       HT       0.417000       1.00800           0
     19793 TIP3     3739     TIP3     H2       HT       0.417000       1.00800           0
     19794 TIP3     3740     TIP3     OH2      OT      -0.834000       15.9994           0
     19795 TIP3     3740     TIP3     H1       HT       0.417000       1.00800           0
     19796 TIP3     3740     TIP3     H2       HT       0.417000       1.00800           0
     19797 TIP3     3741     TIP3     OH2      OT      -0.834000       15.9994           0
     19798 TIP3     3741     TIP3     H1       HT       0.417000       1.00800           0
     19799 TIP3     3741     TIP3     H2       HT       0.417000       1.00800           0
     19800 TIP3     3742     TIP3     OH2      OT      -0.834000       15.9994           0
     19801 TIP3     3742     TIP3     H1       HT       0.417000       1.00800           0
     19802 TIP3     3742     TIP3     H2       HT       0.417000       1.00800           0
     19803 TIP3     3743     TIP3     OH2      OT      -0.834000       15.9994           0
     19804 TIP3     3743     TIP3     H1       HT       0.417000       1.00800           0
     19805 TIP3     3743     TIP3     H2       HT       0.417000       1.00800           0
     19806 TIP3     3744     TIP3     OH2      OT      -0.834000       15.9994           0
     19807 TIP3     3744     TIP3     H1       HT       0.417000       1.00800           0
     19808 TIP3     3744     TIP3     H2       HT       0.417000       1.00800           0
     19809 TIP3     3745     TIP3     OH2      OT      -0.834000       15.9994           0
     19810 TIP3     3745     TIP3     H1       HT       0.417000       1.00800           0
     19811 TIP3     3745     TIP3     H2       HT       0.417000       1.00800           0
     19812 TIP3     3746     TIP3     OH2      OT      -0.834000       15.9994           0
     19813 TIP3     3746     TIP3     H1       HT       0.417000       1.00800           0
     19814 TIP3     3746     TIP3     H2       HT       0.417000       1.00800           0
     19815 TIP3     3747     TIP3     OH2      OT      -0.834000       15.9994           0
     19816 TIP3     3747     TIP3     H1       HT       0.417000       1.00800           0
     19817 TIP3     3747     TIP3     H2       HT       0.417000       1.00800           0
     19818 TIP3     3748     TIP3     OH2      OT      -0.834000       15.9994           0
     19819 TIP3     3748     TIP3     H1       HT       0.417000       1.00800           0
     19820 TIP3     3748     TIP3     H2       HT       0.417000       1.00800           0
     19821 TIP3     3749     TIP3     OH2      OT      -0.834000       15.9994           0
     19822 TIP3     3749     TIP3     H1       HT       0.417000       1.00800           0
     19823 TIP3     3749     TIP3     H2       HT       0.417000       1.00800           0
     19824 TIP3     3750     TIP3     OH2      OT      -0.834000       15.9994           0
     19825 TIP3     3750     TIP3     H1       HT       0.417000       1.00800           0
     19826 TIP3     3750     TIP3     H2       HT       0.417000       1.00800           0
     19827 TIP3     3751     TIP3     OH2      OT      -0.834000       15.9994           0
     19828 TIP3     3751     TIP3     H1       HT       0.417000       1.00800           0
     19829 TIP3     3751     TIP3     H2       HT       0.417000       1.00800           0
     19830 TIP3     3752     TIP3     OH2      OT      -0.834000       15.9994           0
     19831 TIP3     3752     TIP3     H1       HT       0.417000       1.00800           0
     19832 TIP3     3752     TIP3     H2       HT       0.417000       1.00800           0
     19833 TIP3     3753     TIP3     OH2      OT      -0.834000       15.9994           0
     19834 TIP3     3753     TIP3     H1       HT       0.417000       1.00800           0
     19835 TIP3     3753     TIP3     H2       HT       0.417000       1.00800           0
     19836 TIP3     3754     TIP3     OH2      OT      -0.834000       15.9994           0
     19837 TIP3     3754     TIP3     H1       HT       0.417000       1.00800           0
     19838 TIP3     3754     TIP3     H2       HT       0.417000       1.00800           0
     19839 TIP3     3755     TIP3     OH2      OT      -0.834000       15.9994           0
     19840 TIP3     3755     TIP3     H1       HT       0.417000       1.00800           0
     19841 TIP3     3755     TIP3     H2       HT       0.417000       1.00800           0
     19842 TIP3     3756     TIP3     OH2      OT      -0.834000       15.9994           0
     19843 TIP3     3756     TIP3     H1       HT       0.417000       1.00800           0
     19844 TIP3     3756     TIP3     H2       HT       0.417000       1.00800           0
     19845 TIP3     3757     TIP3     OH2      OT      -0.834000       15.9994           0
     19846 TIP3     3757     TIP3     H1       HT       0.417000       1.00800           0
     19847 TIP3     3757     TIP3     H2       HT       0.417000       1.00800           0
     19848 TIP3     3758     TIP3     OH2      OT      -0.834000       15.9994           0
     19849 TIP3     3758     TIP3     H1       HT       0.417000       1.00800           0
     19850 TIP3     3758     TIP3     H2       HT       0.417000       1.00800           0
     19851 TIP3     3759     TIP3     OH2      OT      -0.834000       15.9994           0
     19852 TIP3     3759     TIP3     H1       HT       0.417000       1.00800           0
     19853 TIP3     3759     TIP3     H2       HT       0.417000       1.00800           0
     19854 TIP3     3760     TIP3     OH2      OT      -0.834000       15.9994           0
     19855 TIP3     3760     TIP3     H1       HT       0.417000       1.00800           0
     19856 TIP3     3760     TIP3     H2       HT       0.417000       1.00800           0
     19857 TIP3     3761     TIP3     OH2      OT      -0.834000       15.9994           0
     19858 TIP3     3761     TIP3     H1       HT       0.417000       1.00800           0
     19859 TIP3     3761     TIP3     H2       HT       0.417000       1.00800           0
     19860 TIP3     3762     TIP3     OH2      OT      -0.834000       15.9994           0
     19861 TIP3     3762     TIP3     H1       HT       0.417000       1.00800           0
     19862 TIP3     3762     TIP3     H2       HT       0.417000       1.00800           0
     19863 TIP3     3763     TIP3     OH2      OT      -0.834000       15.9994           0
     19864 TIP3     3763     TIP3     H1       HT       0.417000       1.00800           0
     19865 TIP3     3763     TIP3     H2       HT       0.417000       1.00800           0
     19866 TIP3     3764     TIP3     OH2      OT      -0.834000       15.9994           0
     19867 TIP3     3764     TIP3     H1       HT       0.417000       1.00800           0
     19868 TIP3     3764     TIP3     H2       HT       0.417000       1.00800           0
     19869 TIP3     3765     TIP3     OH2      OT      -0.834000       15.9994           0
     19870 TIP3     3765     TIP3     H1       HT       0.417000       1.00800           0
     19871 TIP3     3765     TIP3     H2       HT       0.417000       1.00800           0
     19872 TIP3     3766     TIP3     OH2      OT      -0.834000       15.9994           0
     19873 TIP3     3766     TIP3     H1       HT       0.417000       1.00800           0
     19874 TIP3     3766     TIP3     H2       HT       0.417000       1.00800           0
     19875 TIP3     3767     TIP3     OH2      OT      -0.834000       15.9994           0
     19876 TIP3     3767     TIP3     H1       HT       0.417000       1.00800           0
     19877 TIP3     3767     TIP3     H2       HT       0.417000       1.00800           0
     19878 TIP3     3768     TIP3     OH2      OT      -0.834000       15.9994           0
     19879 TIP3     3768     TIP3     H1       HT       0.417000       1.00800           0
     19880 TIP3     3768     TIP3     H2       HT       0.417000       1.00800           0
     19881 TIP3     3769     TIP3     OH2      OT      -0.834000       15.9994           0
     19882 TIP3     3769     TIP3     H1       HT       0.417000       1.00800           0
     19883 TIP3     3769     TIP3     H2       HT       0.417000       1.00800           0
     19884 TIP3     3770     TIP3     OH2      OT      -0.834000       15.9994           0
     19885 TIP3     3770     TIP3     H1       HT       0.417000       1.00800           0
     19886 TIP3     3770     TIP3     H2       HT       0.417000       1.00800           0
     19887 TIP3     3771     TIP3     OH2      OT      -0.834000       15.9994           0
     19888 TIP3     3771     TIP3     H1       HT       0.417000       1.00800           0
     19889 TIP3     3771     TIP3     H2       HT       0.417000       1.00800           0
     19890 TIP3     3772     TIP3     OH2      OT      -0.834000       15.9994           0
     19891 TIP3     3772     TIP3     H1       HT       0.417000       1.00800           0
     19892 TIP3     3772     TIP3     H2       HT       0.417000       1.00800           0
     19893 TIP3     3773     TIP3     OH2      OT      -0.834000       15.9994           0
     19894 TIP3     3773     TIP3     H1       HT       0.417000       1.00800           0
     19895 TIP3     3773     TIP3     H2       HT       0.417000       1.00800           0
     19896 TIP3     3774     TIP3     OH2      OT      -0.834000       15.9994           0
     19897 TIP3     3774     TIP3     H1       HT       0.417000       1.00800           0
     19898 TIP3     3774     TIP3     H2       HT       0.417000       1.00800           0
     19899 TIP3     3775     TIP3     OH2      OT      -0.834000       15.9994           0
     19900 TIP3     3775     TIP3     H1       HT       0.417000       1.00800           0
     19901 TIP3     3775     TIP3     H2       HT       0.417000       1.00800           0
     19902 TIP3     3776     TIP3     OH2      OT      -0.834000       15.9994           0
     19903 TIP3     3776     TIP3     H1       HT       0.417000       1.00800           0
     19904 TIP3     3776     TIP3     H2       HT       0.417000       1.00800           0
     19905 TIP3     3777     TIP3     OH2      OT      -0.834000       15.9994           0
     19906 TIP3     3777     TIP3     H1       HT       0.417000       1.00800           0
     19907 TIP3     3777     TIP3     H2       HT       0.417000       1.00800           0
     19908 TIP3     3778     TIP3     OH2      OT      -0.834000       15.9994           0
     19909 TIP3     3778     TIP3     H1       HT       0.417000       1.00800           0
     19910 TIP3     3778     TIP3     H2       HT       0.417000       1.00800           0
     19911 TIP3     3779     TIP3     OH2      OT      -0.834000       15.9994           0
     19912 TIP3     3779     TIP3     H1       HT       0.417000       1.00800           0
     19913 TIP3     3779     TIP3     H2       HT       0.417000       1.00800           0
     19914 TIP3     3780     TIP3     OH2      OT      -0.834000       15.9994           0
     19915 TIP3     3780     TIP3     H1       HT       0.417000       1.00800           0
     19916 TIP3     3780     TIP3     H2       HT       0.417000       1.00800           0
     19917 TIP3     3781     TIP3     OH2      OT      -0.834000       15.9994           0
     19918 TIP3     3781     TIP3     H1       HT       0.417000       1.00800           0
     19919 TIP3     3781     TIP3     H2       HT       0.417000       1.00800           0
     19920 TIP3     3782     TIP3     OH2      OT      -0.834000       15.9994           0
     19921 TIP3     3782     TIP3     H1       HT       0.417000       1.00800           0
     19922 TIP3     3782     TIP3     H2       HT       0.417000       1.00800           0
     19923 TIP3     3783     TIP3     OH2      OT      -0.834000       15.9994           0
     19924 TIP3     3783     TIP3     H1       HT       0.417000       1.00800           0
     19925 TIP3     3783     TIP3     H2       HT       0.417000       1.00800           0
     19926 TIP3     3784     TIP3     OH2      OT      -0.834000       15.9994           0
     19927 TIP3     3784     TIP3     H1       HT       0.417000       1.00800           0
     19928 TIP3     3784     TIP3     H2       HT       0.417000       1.00800           0
     19929 TIP3     3785     TIP3     OH2      OT      -0.834000       15.9994           0
     19930 TIP3     3785     TIP3     H1       HT       0.417000       1.00800           0
     19931 TIP3     3785     TIP3     H2       HT       0.417000       1.00800           0
     19932 TIP3     3786     TIP3     OH2      OT      -0.834000       15.9994           0
     19933 TIP3     3786     TIP3     H1       HT       0.417000       1.00800           0
     19934 TIP3     3786     TIP3     H2       HT       0.417000       1.00800           0
     19935 TIP3     3787     TIP3     OH2      OT      -0.834000       15.9994           0
     19936 TIP3     3787     TIP3     H1       HT       0.417000       1.00800           0
     19937 TIP3     3787     TIP3     H2       HT       0.417000       1.00800           0
     19938 TIP3     3788     TIP3     OH2      OT      -0.834000       15.9994           0
     19939 TIP3     3788     TIP3     H1       HT       0.417000       1.00800           0
     19940 TIP3     3788     TIP3     H2       HT       0.417000       1.00800           0
     19941 TIP3     3789     TIP3     OH2      OT      -0.834000       15.9994           0
     19942 TIP3     3789     TIP3     H1       HT       0.417000       1.00800           0
     19943 TIP3     3789     TIP3     H2       HT       0.417000       1.00800           0
     19944 TIP3     3790     TIP3     OH2      OT      -0.834000       15.9994           0
     19945 TIP3     3790     TIP3     H1       HT       0.417000       1.00800           0
     19946 TIP3     3790     TIP3     H2       HT       0.417000       1.00800           0
     19947 TIP3     3791     TIP3     OH2      OT      -0.834000       15.9994           0
     19948 TIP3     3791     TIP3     H1       HT       0.417000       1.00800           0
     19949 TIP3     3791     TIP3     H2       HT       0.417000       1.00800           0
     19950 TIP3     3792     TIP3     OH2      OT      -0.834000       15.9994           0
     19951 TIP3     3792     TIP3     H1       HT       0.417000       1.00800           0
     19952 TIP3     3792     TIP3     H2       HT       0.417000       1.00800           0
     19953 TIP3     3793     TIP3     OH2      OT      -0.834000       15.9994           0
     19954 TIP3     3793     TIP3     H1       HT       0.417000       1.00800           0
     19955 TIP3     3793     TIP3     H2       HT       0.417000       1.00800           0
     19956 TIP3     3794     TIP3     OH2      OT      -0.834000       15.9994           0
     19957 TIP3     3794     TIP3     H1       HT       0.417000       1.00800           0
     19958 TIP3     3794     TIP3     H2       HT       0.417000       1.00800           0
     19959 TIP3     3795     TIP3     OH2      OT      -0.834000       15.9994           0
     19960 TIP3     3795     TIP3     H1       HT       0.417000       1.00800           0
     19961 TIP3     3795     TIP3     H2       HT       0.417000       1.00800           0
     19962 TIP3     3796     TIP3     OH2      OT      -0.834000       15.9994           0
     19963 TIP3     3796     TIP3     H1       HT       0.417000       1.00800           0
     19964 TIP3     3796     TIP3     H2       HT       0.417000       1.00800           0
     19965 TIP3     3797     TIP3     OH2      OT      -0.834000       15.9994           0
     19966 TIP3     3797     TIP3     H1       HT       0.417000       1.00800           0
     19967 TIP3     3797     TIP3     H2       HT       0.417000       1.00800           0
     19968 TIP3     3798     TIP3     OH2      OT      -0.834000       15.9994           0
     19969 TIP3     3798     TIP3     H1       HT       0.417000       1.00800           0
     19970 TIP3     3798     TIP3     H2       HT       0.417000       1.00800           0
     19971 TIP3     3799     TIP3     OH2      OT      -0.834000       15.9994           0
     19972 TIP3     3799     TIP3     H1       HT       0.417000       1.00800           0
     19973 TIP3     3799     TIP3     H2       HT       0.417000       1.00800           0
     19974 TIP3     3800     TIP3     OH2      OT      -0.834000       15.9994           0
     19975 TIP3     3800     TIP3     H1       HT       0.417000       1.00800           0
     19976 TIP3     3800     TIP3     H2       HT       0.417000       1.00800           0
     19977 TIP3     3801     TIP3     OH2      OT      -0.834000       15.9994           0
     19978 TIP3     3801     TIP3     H1       HT       0.417000       1.00800           0
     19979 TIP3     3801     TIP3     H2       HT       0.417000       1.00800           0
     19980 TIP3     3802     TIP3     OH2      OT      -0.834000       15.9994           0
     19981 TIP3     3802     TIP3     H1       HT       0.417000       1.00800           0
     19982 TIP3     3802     TIP3     H2       HT       0.417000       1.00800           0
     19983 TIP3     3803     TIP3     OH2      OT      -0.834000       15.9994           0
     19984 TIP3     3803     TIP3     H1       HT       0.417000       1.00800           0
     19985 TIP3     3803     TIP3     H2       HT       0.417000       1.00800           0
     19986 TIP3     3804     TIP3     OH2      OT      -0.834000       15.9994           0
     19987 TIP3     3804     TIP3     H1       HT       0.417000       1.00800           0
     19988 TIP3     3804     TIP3     H2       HT       0.417000       1.00800           0
     19989 TIP3     3805     TIP3     OH2      OT      -0.834000       15.9994           0
     19990 TIP3     3805     TIP3     H1       HT       0.417000       1.00800           0
     19991 TIP3     3805     TIP3     H2       HT       0.417000       1.00800           0
     19992 TIP3     3806     TIP3     OH2      OT      -0.834000       15.9994           0
     19993 TIP3     3806     TIP3     H1       HT       0.417000       1.00800           0
     19994 TIP3     3806     TIP3     H2       HT       0.417000       1.00800           0
     19995 TIP3     3807     TIP3     OH2      OT      -0.834000       15.9994           0
     19996 TIP3     3807     TIP3     H1       HT       0.417000       1.00800           0
     19997 TIP3     3807     TIP3     H2       HT       0.417000       1.00800           0
     19998 TIP3     3808     TIP3     OH2      OT      -0.834000       15.9994           0
     19999 TIP3     3808     TIP3     H1       HT       0.417000       1.00800           0
     20000 TIP3     3808     TIP3     H2       HT       0.417000       1.00800           0
     20001 TIP3     3809     TIP3     OH2      OT      -0.834000       15.9994           0
     20002 TIP3     3809     TIP3     H1       HT       0.417000       1.00800           0
     20003 TIP3     3809     TIP3     H2       HT       0.417000       1.00800           0
     20004 TIP3     3810     TIP3     OH2      OT      -0.834000       15.9994           0
     20005 TIP3     3810     TIP3     H1       HT       0.417000       1.00800           0
     20006 TIP3     3810     TIP3     H2       HT       0.417000       1.00800           0
     20007 TIP3     3811     TIP3     OH2      OT      -0.834000       15.9994           0
     20008 TIP3     3811     TIP3     H1       HT       0.417000       1.00800           0
     20009 TIP3     3811     TIP3     H2       HT       0.417000       1.00800           0
     20010 TIP3     3812     TIP3     OH2      OT      -0.834000       15.9994           0
     20011 TIP3     3812     TIP3     H1       HT       0.417000       1.00800           0
     20012 TIP3     3812     TIP3     H2       HT       0.417000       1.00800           0
     20013 TIP3     3813     TIP3     OH2      OT      -0.834000       15.9994           0
     20014 TIP3     3813     TIP3     H1       HT       0.417000       1.00800           0
     20015 TIP3     3813     TIP3     H2       HT       0.417000       1.00800           0
     20016 TIP3     3814     TIP3     OH2      OT      -0.834000       15.9994           0
     20017 TIP3     3814     TIP3     H1       HT       0.417000       1.00800           0
     20018 TIP3     3814     TIP3     H2       HT       0.417000       1.00800           0
     20019 TIP3     3815     TIP3     OH2      OT      -0.834000       15.9994           0
     20020 TIP3     3815     TIP3     H1       HT       0.417000       1.00800           0
     20021 TIP3     3815     TIP3     H2       HT       0.417000       1.00800           0
     20022 TIP3     3816     TIP3     OH2      OT      -0.834000       15.9994           0
     20023 TIP3     3816     TIP3     H1       HT       0.417000       1.00800           0
     20024 TIP3     3816     TIP3     H2       HT       0.417000       1.00800           0
     20025 TIP3     3817     TIP3     OH2      OT      -0.834000       15.9994           0
     20026 TIP3     3817     TIP3     H1       HT       0.417000       1.00800           0
     20027 TIP3     3817     TIP3     H2       HT       0.417000       1.00800           0
     20028 TIP3     3818     TIP3     OH2      OT      -0.834000       15.9994           0
     20029 TIP3     3818     TIP3     H1       HT       0.417000       1.00800           0
     20030 TIP3     3818     TIP3     H2       HT       0.417000       1.00800           0
     20031 TIP3     3819     TIP3     OH2      OT      -0.834000       15.9994           0
     20032 TIP3     3819     TIP3     H1       HT       0.417000       1.00800           0
     20033 TIP3     3819     TIP3     H2       HT       0.417000       1.00800           0
     20034 TIP3     3820     TIP3     OH2      OT      -0.834000       15.9994           0
     20035 TIP3     3820     TIP3     H1       HT       0.417000       1.00800           0
     20036 TIP3     3820     TIP3     H2       HT       0.417000       1.00800           0
     20037 TIP3     3821     TIP3     OH2      OT      -0.834000       15.9994           0
     20038 TIP3     3821     TIP3     H1       HT       0.417000       1.00800           0
     20039 TIP3     3821     TIP3     H2       HT       0.417000       1.00800           0
     20040 TIP3     3822     TIP3     OH2      OT      -0.834000       15.9994           0
     20041 TIP3     3822     TIP3     H1       HT       0.417000       1.00800           0
     20042 TIP3     3822     TIP3     H2       HT       0.417000       1.00800           0
     20043 TIP3     3823     TIP3     OH2      OT      -0.834000       15.9994           0
     20044 TIP3     3823     TIP3     H1       HT       0.417000       1.00800           0
     20045 TIP3     3823     TIP3     H2       HT       0.417000       1.00800           0
     20046 TIP3     3824     TIP3     OH2      OT      -0.834000       15.9994           0
     20047 TIP3     3824     TIP3     H1       HT       0.417000       1.00800           0
     20048 TIP3     3824     TIP3     H2       HT       0.417000       1.00800           0
     20049 TIP3     3825     TIP3     OH2      OT      -0.834000       15.9994           0
     20050 TIP3     3825     TIP3     H1       HT       0.417000       1.00800           0
     20051 TIP3     3825     TIP3     H2       HT       0.417000       1.00800           0
     20052 TIP3     3826     TIP3     OH2      OT      -0.834000       15.9994           0
     20053 TIP3     3826     TIP3     H1       HT       0.417000       1.00800           0
     20054 TIP3     3826     TIP3     H2       HT       0.417000       1.00800           0
     20055 TIP3     3827     TIP3     OH2      OT      -0.834000       15.9994           0
     20056 TIP3     3827     TIP3     H1       HT       0.417000       1.00800           0
     20057 TIP3     3827     TIP3     H2       HT       0.417000       1.00800           0
     20058 TIP3     3828     TIP3     OH2      OT      -0.834000       15.9994           0
     20059 TIP3     3828     TIP3     H1       HT       0.417000       1.00800           0
     20060 TIP3     3828     TIP3     H2       HT       0.417000       1.00800           0
     20061 TIP3     3829     TIP3     OH2      OT      -0.834000       15.9994           0
     20062 TIP3     3829     TIP3     H1       HT       0.417000       1.00800           0
     20063 TIP3     3829     TIP3     H2       HT       0.417000       1.00800           0
     20064 TIP3     3830     TIP3     OH2      OT      -0.834000       15.9994           0
     20065 TIP3     3830     TIP3     H1       HT       0.417000       1.00800           0
     20066 TIP3     3830     TIP3     H2       HT       0.417000       1.00800           0
     20067 TIP3     3831     TIP3     OH2      OT      -0.834000       15.9994           0
     20068 TIP3     3831     TIP3     H1       HT       0.417000       1.00800           0
     20069 TIP3     3831     TIP3     H2       HT       0.417000       1.00800           0
     20070 TIP3     3832     TIP3     OH2      OT      -0.834000       15.9994           0
     20071 TIP3     3832     TIP3     H1       HT       0.417000       1.00800           0
     20072 TIP3     3832     TIP3     H2       HT       0.417000       1.00800           0
     20073 TIP3     3833     TIP3     OH2      OT      -0.834000       15.9994           0
     20074 TIP3     3833     TIP3     H1       HT       0.417000       1.00800           0
     20075 TIP3     3833     TIP3     H2       HT       0.417000       1.00800           0
     20076 TIP3     3834     TIP3     OH2      OT      -0.834000       15.9994           0
     20077 TIP3     3834     TIP3     H1       HT       0.417000       1.00800           0
     20078 TIP3     3834     TIP3     H2       HT       0.417000       1.00800           0
     20079 TIP3     3835     TIP3     OH2      OT      -0.834000       15.9994           0
     20080 TIP3     3835     TIP3     H1       HT       0.417000       1.00800           0
     20081 TIP3     3835     TIP3     H2       HT       0.417000       1.00800           0
     20082 TIP3     3836     TIP3     OH2      OT      -0.834000       15.9994           0
     20083 TIP3     3836     TIP3     H1       HT       0.417000       1.00800           0
     20084 TIP3     3836     TIP3     H2       HT       0.417000       1.00800           0
     20085 TIP3     3837     TIP3     OH2      OT      -0.834000       15.9994           0
     20086 TIP3     3837     TIP3     H1       HT       0.417000       1.00800           0
     20087 TIP3     3837     TIP3     H2       HT       0.417000       1.00800           0
     20088 TIP3     3838     TIP3     OH2      OT      -0.834000       15.9994           0
     20089 TIP3     3838     TIP3     H1       HT       0.417000       1.00800           0
     20090 TIP3     3838     TIP3     H2       HT       0.417000       1.00800           0
     20091 TIP3     3839     TIP3     OH2      OT      -0.834000       15.9994           0
     20092 TIP3     3839     TIP3     H1       HT       0.417000       1.00800           0
     20093 TIP3     3839     TIP3     H2       HT       0.417000       1.00800           0
     20094 TIP3     3840     TIP3     OH2      OT      -0.834000       15.9994           0
     20095 TIP3     3840     TIP3     H1       HT       0.417000       1.00800           0
     20096 TIP3     3840     TIP3     H2       HT       0.417000       1.00800           0
     20097 TIP3     3841     TIP3     OH2      OT      -0.834000       15.9994           0
     20098 TIP3     3841     TIP3     H1       HT       0.417000       1.00800           0
     20099 TIP3     3841     TIP3     H2       HT       0.417000       1.00800           0
     20100 TIP3     3842     TIP3     OH2      OT      -0.834000       15.9994           0
     20101 TIP3     3842     TIP3     H1       HT       0.417000       1.00800           0
     20102 TIP3     3842     TIP3     H2       HT       0.417000       1.00800           0
     20103 TIP3     3843     TIP3     OH2      OT      -0.834000       15.9994           0
     20104 TIP3     3843     TIP3     H1       HT       0.417000       1.00800           0
     20105 TIP3     3843     TIP3     H2       HT       0.417000       1.00800           0
     20106 TIP3     3844     TIP3     OH2      OT      -0.834000       15.9994           0
     20107 TIP3     3844     TIP3     H1       HT       0.417000       1.00800           0
     20108 TIP3     3844     TIP3     H2       HT       0.417000       1.00800           0
     20109 TIP3     3845     TIP3     OH2      OT      -0.834000       15.9994           0
     20110 TIP3     3845     TIP3     H1       HT       0.417000       1.00800           0
     20111 TIP3     3845     TIP3     H2       HT       0.417000       1.00800           0
     20112 TIP3     3846     TIP3     OH2      OT      -0.834000       15.9994           0
     20113 TIP3     3846     TIP3     H1       HT       0.417000       1.00800           0
     20114 TIP3     3846     TIP3     H2       HT       0.417000       1.00800           0
     20115 TIP3     3847     TIP3     OH2      OT      -0.834000       15.9994           0
     20116 TIP3     3847     TIP3     H1       HT       0.417000       1.00800           0
     20117 TIP3     3847     TIP3     H2       HT       0.417000       1.00800           0
     20118 TIP3     3848     TIP3     OH2      OT      -0.834000       15.9994           0
     20119 TIP3     3848     TIP3     H1       HT       0.417000       1.00800           0
     20120 TIP3     3848     TIP3     H2       HT       0.417000       1.00800           0
     20121 TIP3     3849     TIP3     OH2      OT      -0.834000       15.9994           0
     20122 TIP3     3849     TIP3     H1       HT       0.417000       1.00800           0
     20123 TIP3     3849     TIP3     H2       HT       0.417000       1.00800           0
     20124 TIP3     3850     TIP3     OH2      OT      -0.834000       15.9994           0
     20125 TIP3     3850     TIP3     H1       HT       0.417000       1.00800           0
     20126 TIP3     3850     TIP3     H2       HT       0.417000       1.00800           0
     20127 TIP3     3851     TIP3     OH2      OT      -0.834000       15.9994           0
     20128 TIP3     3851     TIP3     H1       HT       0.417000       1.00800           0
     20129 TIP3     3851     TIP3     H2       HT       0.417000       1.00800           0
     20130 TIP3     3852     TIP3     OH2      OT      -0.834000       15.9994           0
     20131 TIP3     3852     TIP3     H1       HT       0.417000       1.00800           0
     20132 TIP3     3852     TIP3     H2       HT       0.417000       1.00800           0
     20133 TIP3     3853     TIP3     OH2      OT      -0.834000       15.9994           0
     20134 TIP3     3853     TIP3     H1       HT       0.417000       1.00800           0
     20135 TIP3     3853     TIP3     H2       HT       0.417000       1.00800           0
     20136 TIP3     3854     TIP3     OH2      OT      -0.834000       15.9994           0
     20137 TIP3     3854     TIP3     H1       HT       0.417000       1.00800           0
     20138 TIP3     3854     TIP3     H2       HT       0.417000       1.00800           0
     20139 TIP3     3855     TIP3     OH2      OT      -0.834000       15.9994           0
     20140 TIP3     3855     TIP3     H1       HT       0.417000       1.00800           0
     20141 TIP3     3855     TIP3     H2       HT       0.417000       1.00800           0
     20142 TIP3     3856     TIP3     OH2      OT      -0.834000       15.9994           0
     20143 TIP3     3856     TIP3     H1       HT       0.417000       1.00800           0
     20144 TIP3     3856     TIP3     H2       HT       0.417000       1.00800           0
     20145 TIP3     3857     TIP3     OH2      OT      -0.834000       15.9994           0
     20146 TIP3     3857     TIP3     H1       HT       0.417000       1.00800           0
     20147 TIP3     3857     TIP3     H2       HT       0.417000       1.00800           0
     20148 TIP3     3858     TIP3     OH2      OT      -0.834000       15.9994           0
     20149 TIP3     3858     TIP3     H1       HT       0.417000       1.00800           0
     20150 TIP3     3858     TIP3     H2       HT       0.417000       1.00800           0
     20151 TIP3     3859     TIP3     OH2      OT      -0.834000       15.9994           0
     20152 TIP3     3859     TIP3     H1       HT       0.417000       1.00800           0
     20153 TIP3     3859     TIP3     H2       HT       0.417000       1.00800           0
     20154 TIP3     3860     TIP3     OH2      OT      -0.834000       15.9994           0
     20155 TIP3     3860     TIP3     H1       HT       0.417000       1.00800           0
     20156 TIP3     3860     TIP3     H2       HT       0.417000       1.00800           0
     20157 TIP3     3861     TIP3     OH2      OT      -0.834000       15.9994           0
     20158 TIP3     3861     TIP3     H1       HT       0.417000       1.00800           0
     20159 TIP3     3861     TIP3     H2       HT       0.417000       1.00800           0
     20160 TIP3     3862     TIP3     OH2      OT      -0.834000       15.9994           0
     20161 TIP3     3862     TIP3     H1       HT       0.417000       1.00800           0
     20162 TIP3     3862     TIP3     H2       HT       0.417000       1.00800           0
     20163 TIP3     3863     TIP3     OH2      OT      -0.834000       15.9994           0
     20164 TIP3     3863     TIP3     H1       HT       0.417000       1.00800           0
     20165 TIP3     3863     TIP3     H2       HT       0.417000       1.00800           0
     20166 TIP3     3864     TIP3     OH2      OT      -0.834000       15.9994           0
     20167 TIP3     3864     TIP3     H1       HT       0.417000       1.00800           0
     20168 TIP3     3864     TIP3     H2       HT       0.417000       1.00800           0
     20169 TIP3     3865     TIP3     OH2      OT      -0.834000       15.9994           0
     20170 TIP3     3865     TIP3     H1       HT       0.417000       1.00800           0
     20171 TIP3     3865     TIP3     H2       HT       0.417000       1.00800           0
     20172 TIP3     3866     TIP3     OH2      OT      -0.834000       15.9994           0
     20173 TIP3     3866     TIP3     H1       HT       0.417000       1.00800           0
     20174 TIP3     3866     TIP3     H2       HT       0.417000       1.00800           0
     20175 TIP3     3867     TIP3     OH2      OT      -0.834000       15.9994           0
     20176 TIP3     3867     TIP3     H1       HT       0.417000       1.00800           0
     20177 TIP3     3867     TIP3     H2       HT       0.417000       1.00800           0
     20178 TIP3     3868     TIP3     OH2      OT      -0.834000       15.9994           0
     20179 TIP3     3868     TIP3     H1       HT       0.417000       1.00800           0
     20180 TIP3     3868     TIP3     H2       HT       0.417000       1.00800           0
     20181 TIP3     3869     TIP3     OH2      OT      -0.834000       15.9994           0
     20182 TIP3     3869     TIP3     H1       HT       0.417000       1.00800           0
     20183 TIP3     3869     TIP3     H2       HT       0.417000       1.00800           0
     20184 TIP3     3870     TIP3     OH2      OT      -0.834000       15.9994           0
     20185 TIP3     3870     TIP3     H1       HT       0.417000       1.00800           0
     20186 TIP3     3870     TIP3     H2       HT       0.417000       1.00800           0
     20187 TIP3     3871     TIP3     OH2      OT      -0.834000       15.9994           0
     20188 TIP3     3871     TIP3     H1       HT       0.417000       1.00800           0
     20189 TIP3     3871     TIP3     H2       HT       0.417000       1.00800           0
     20190 TIP3     3872     TIP3     OH2      OT      -0.834000       15.9994           0
     20191 TIP3     3872     TIP3     H1       HT       0.417000       1.00800           0
     20192 TIP3     3872     TIP3     H2       HT       0.417000       1.00800           0
     20193 TIP3     3873     TIP3     OH2      OT      -0.834000       15.9994           0
     20194 TIP3     3873     TIP3     H1       HT       0.417000       1.00800           0
     20195 TIP3     3873     TIP3     H2       HT       0.417000       1.00800           0
     20196 TIP3     3874     TIP3     OH2      OT      -0.834000       15.9994           0
     20197 TIP3     3874     TIP3     H1       HT       0.417000       1.00800           0
     20198 TIP3     3874     TIP3     H2       HT       0.417000       1.00800           0
     20199 TIP3     3875     TIP3     OH2      OT      -0.834000       15.9994           0
     20200 TIP3     3875     TIP3     H1       HT       0.417000       1.00800           0
     20201 TIP3     3875     TIP3     H2       HT       0.417000       1.00800           0
     20202 TIP3     3876     TIP3     OH2      OT      -0.834000       15.9994           0
     20203 TIP3     3876     TIP3     H1       HT       0.417000       1.00800           0
     20204 TIP3     3876     TIP3     H2       HT       0.417000       1.00800           0
     20205 TIP3     3877     TIP3     OH2      OT      -0.834000       15.9994           0
     20206 TIP3     3877     TIP3     H1       HT       0.417000       1.00800           0
     20207 TIP3     3877     TIP3     H2       HT       0.417000       1.00800           0
     20208 TIP3     3878     TIP3     OH2      OT      -0.834000       15.9994           0
     20209 TIP3     3878     TIP3     H1       HT       0.417000       1.00800           0
     20210 TIP3     3878     TIP3     H2       HT       0.417000       1.00800           0
     20211 TIP3     3879     TIP3     OH2      OT      -0.834000       15.9994           0
     20212 TIP3     3879     TIP3     H1       HT       0.417000       1.00800           0
     20213 TIP3     3879     TIP3     H2       HT       0.417000       1.00800           0
     20214 TIP3     3880     TIP3     OH2      OT      -0.834000       15.9994           0
     20215 TIP3     3880     TIP3     H1       HT       0.417000       1.00800           0
     20216 TIP3     3880     TIP3     H2       HT       0.417000       1.00800           0
     20217 TIP3     3881     TIP3     OH2      OT      -0.834000       15.9994           0
     20218 TIP3     3881     TIP3     H1       HT       0.417000       1.00800           0
     20219 TIP3     3881     TIP3     H2       HT       0.417000       1.00800           0
     20220 TIP3     3882     TIP3     OH2      OT      -0.834000       15.9994           0
     20221 TIP3     3882     TIP3     H1       HT       0.417000       1.00800           0
     20222 TIP3     3882     TIP3     H2       HT       0.417000       1.00800           0
     20223 TIP3     3883     TIP3     OH2      OT      -0.834000       15.9994           0
     20224 TIP3     3883     TIP3     H1       HT       0.417000       1.00800           0
     20225 TIP3     3883     TIP3     H2       HT       0.417000       1.00800           0
     20226 TIP3     3884     TIP3     OH2      OT      -0.834000       15.9994           0
     20227 TIP3     3884     TIP3     H1       HT       0.417000       1.00800           0
     20228 TIP3     3884     TIP3     H2       HT       0.417000       1.00800           0
     20229 TIP3     3885     TIP3     OH2      OT      -0.834000       15.9994           0
     20230 TIP3     3885     TIP3     H1       HT       0.417000       1.00800           0
     20231 TIP3     3885     TIP3     H2       HT       0.417000       1.00800           0
     20232 TIP3     3886     TIP3     OH2      OT      -0.834000       15.9994           0
     20233 TIP3     3886     TIP3     H1       HT       0.417000       1.00800           0
     20234 TIP3     3886     TIP3     H2       HT       0.417000       1.00800           0
     20235 TIP3     3887     TIP3     OH2      OT      -0.834000       15.9994           0
     20236 TIP3     3887     TIP3     H1       HT       0.417000       1.00800           0
     20237 TIP3     3887     TIP3     H2       HT       0.417000       1.00800           0
     20238 TIP3     3888     TIP3     OH2      OT      -0.834000       15.9994           0
     20239 TIP3     3888     TIP3     H1       HT       0.417000       1.00800           0
     20240 TIP3     3888     TIP3     H2       HT       0.417000       1.00800           0
     20241 TIP3     3889     TIP3     OH2      OT      -0.834000       15.9994           0
     20242 TIP3     3889     TIP3     H1       HT       0.417000       1.00800           0
     20243 TIP3     3889     TIP3     H2       HT       0.417000       1.00800           0
     20244 TIP3     3890     TIP3     OH2      OT      -0.834000       15.9994           0
     20245 TIP3     3890     TIP3     H1       HT       0.417000       1.00800           0
     20246 TIP3     3890     TIP3     H2       HT       0.417000       1.00800           0
     20247 TIP3     3891     TIP3     OH2      OT      -0.834000       15.9994           0
     20248 TIP3     3891     TIP3     H1       HT       0.417000       1.00800           0
     20249 TIP3     3891     TIP3     H2       HT       0.417000       1.00800           0
     20250 TIP3     3892     TIP3     OH2      OT      -0.834000       15.9994           0
     20251 TIP3     3892     TIP3     H1       HT       0.417000       1.00800           0
     20252 TIP3     3892     TIP3     H2       HT       0.417000       1.00800           0
     20253 TIP3     3893     TIP3     OH2      OT      -0.834000       15.9994           0
     20254 TIP3     3893     TIP3     H1       HT       0.417000       1.00800           0
     20255 TIP3     3893     TIP3     H2       HT       0.417000       1.00800           0
     20256 TIP3     3894     TIP3     OH2      OT      -0.834000       15.9994           0
     20257 TIP3     3894     TIP3     H1       HT       0.417000       1.00800           0
     20258 TIP3     3894     TIP3     H2       HT       0.417000       1.00800           0
     20259 TIP3     3895     TIP3     OH2      OT      -0.834000       15.9994           0
     20260 TIP3     3895     TIP3     H1       HT       0.417000       1.00800           0
     20261 TIP3     3895     TIP3     H2       HT       0.417000       1.00800           0
     20262 TIP3     3896     TIP3     OH2      OT      -0.834000       15.9994           0
     20263 TIP3     3896     TIP3     H1       HT       0.417000       1.00800           0
     20264 TIP3     3896     TIP3     H2       HT       0.417000       1.00800           0
     20265 TIP3     3897     TIP3     OH2      OT      -0.834000       15.9994           0
     20266 TIP3     3897     TIP3     H1       HT       0.417000       1.00800           0
     20267 TIP3     3897     TIP3     H2       HT       0.417000       1.00800           0
     20268 TIP3     3898     TIP3     OH2      OT      -0.834000       15.9994           0
     20269 TIP3     3898     TIP3     H1       HT       0.417000       1.00800           0
     20270 TIP3     3898     TIP3     H2       HT       0.417000       1.00800           0
     20271 TIP3     3899     TIP3     OH2      OT      -0.834000       15.9994           0
     20272 TIP3     3899     TIP3     H1       HT       0.417000       1.00800           0
     20273 TIP3     3899     TIP3     H2       HT       0.417000       1.00800           0
     20274 TIP3     3900     TIP3     OH2      OT      -0.834000       15.9994           0
     20275 TIP3     3900     TIP3     H1       HT       0.417000       1.00800           0
     20276 TIP3     3900     TIP3     H2       HT       0.417000       1.00800           0
     20277 TIP3     3901     TIP3     OH2      OT      -0.834000       15.9994           0
     20278 TIP3     3901     TIP3     H1       HT       0.417000       1.00800           0
     20279 TIP3     3901     TIP3     H2       HT       0.417000       1.00800           0
     20280 TIP3     3902     TIP3     OH2      OT      -0.834000       15.9994           0
     20281 TIP3     3902     TIP3     H1       HT       0.417000       1.00800           0
     20282 TIP3     3902     TIP3     H2       HT       0.417000       1.00800           0
     20283 TIP3     3903     TIP3     OH2      OT      -0.834000       15.9994           0
     20284 TIP3     3903     TIP3     H1       HT       0.417000       1.00800           0
     20285 TIP3     3903     TIP3     H2       HT       0.417000       1.00800           0
     20286 TIP3     3904     TIP3     OH2      OT      -0.834000       15.9994           0
     20287 TIP3     3904     TIP3     H1       HT       0.417000       1.00800           0
     20288 TIP3     3904     TIP3     H2       HT       0.417000       1.00800           0
     20289 TIP3     3905     TIP3     OH2      OT      -0.834000       15.9994           0
     20290 TIP3     3905     TIP3     H1       HT       0.417000       1.00800           0
     20291 TIP3     3905     TIP3     H2       HT       0.417000       1.00800           0
     20292 TIP3     3906     TIP3     OH2      OT      -0.834000       15.9994           0
     20293 TIP3     3906     TIP3     H1       HT       0.417000       1.00800           0
     20294 TIP3     3906     TIP3     H2       HT       0.417000       1.00800           0
     20295 TIP3     3907     TIP3     OH2      OT      -0.834000       15.9994           0
     20296 TIP3     3907     TIP3     H1       HT       0.417000       1.00800           0
     20297 TIP3     3907     TIP3     H2       HT       0.417000       1.00800           0
     20298 TIP3     3908     TIP3     OH2      OT      -0.834000       15.9994           0
     20299 TIP3     3908     TIP3     H1       HT       0.417000       1.00800           0
     20300 TIP3     3908     TIP3     H2       HT       0.417000       1.00800           0
     20301 TIP3     3909     TIP3     OH2      OT      -0.834000       15.9994           0
     20302 TIP3     3909     TIP3     H1       HT       0.417000       1.00800           0
     20303 TIP3     3909     TIP3     H2       HT       0.417000       1.00800           0
     20304 TIP3     3910     TIP3     OH2      OT      -0.834000       15.9994           0
     20305 TIP3     3910     TIP3     H1       HT       0.417000       1.00800           0
     20306 TIP3     3910     TIP3     H2       HT       0.417000       1.00800           0
     20307 TIP3     3911     TIP3     OH2      OT      -0.834000       15.9994           0
     20308 TIP3     3911     TIP3     H1       HT       0.417000       1.00800           0
     20309 TIP3     3911     TIP3     H2       HT       0.417000       1.00800           0
     20310 TIP3     3912     TIP3     OH2      OT      -0.834000       15.9994           0
     20311 TIP3     3912     TIP3     H1       HT       0.417000       1.00800           0
     20312 TIP3     3912     TIP3     H2       HT       0.417000       1.00800           0
     20313 TIP3     3913     TIP3     OH2      OT      -0.834000       15.9994           0
     20314 TIP3     3913     TIP3     H1       HT       0.417000       1.00800           0
     20315 TIP3     3913     TIP3     H2       HT       0.417000       1.00800           0
     20316 TIP3     3914     TIP3     OH2      OT      -0.834000       15.9994           0
     20317 TIP3     3914     TIP3     H1       HT       0.417000       1.00800           0
     20318 TIP3     3914     TIP3     H2       HT       0.417000       1.00800           0
     20319 TIP3     3915     TIP3     OH2      OT      -0.834000       15.9994           0
     20320 TIP3     3915     TIP3     H1       HT       0.417000       1.00800           0
     20321 TIP3     3915     TIP3     H2       HT       0.417000       1.00800           0
     20322 TIP3     3916     TIP3     OH2      OT      -0.834000       15.9994           0
     20323 TIP3     3916     TIP3     H1       HT       0.417000       1.00800           0
     20324 TIP3     3916     TIP3     H2       HT       0.417000       1.00800           0
     20325 TIP3     3917     TIP3     OH2      OT      -0.834000       15.9994           0
     20326 TIP3     3917     TIP3     H1       HT       0.417000       1.00800           0
     20327 TIP3     3917     TIP3     H2       HT       0.417000       1.00800           0
     20328 TIP3     3918     TIP3     OH2      OT      -0.834000       15.9994           0
     20329 TIP3     3918     TIP3     H1       HT       0.417000       1.00800           0
     20330 TIP3     3918     TIP3     H2       HT       0.417000       1.00800           0
     20331 TIP3     3919     TIP3     OH2      OT      -0.834000       15.9994           0
     20332 TIP3     3919     TIP3     H1       HT       0.417000       1.00800           0
     20333 TIP3     3919     TIP3     H2       HT       0.417000       1.00800           0
     20334 TIP3     3920     TIP3     OH2      OT      -0.834000       15.9994           0
     20335 TIP3     3920     TIP3     H1       HT       0.417000       1.00800           0
     20336 TIP3     3920     TIP3     H2       HT       0.417000       1.00800           0
     20337 TIP3     3921     TIP3     OH2      OT      -0.834000       15.9994           0
     20338 TIP3     3921     TIP3     H1       HT       0.417000       1.00800           0
     20339 TIP3     3921     TIP3     H2       HT       0.417000       1.00800           0
     20340 TIP3     3922     TIP3     OH2      OT      -0.834000       15.9994           0
     20341 TIP3     3922     TIP3     H1       HT       0.417000       1.00800           0
     20342 TIP3     3922     TIP3     H2       HT       0.417000       1.00800           0
     20343 TIP3     3923     TIP3     OH2      OT      -0.834000       15.9994           0
     20344 TIP3     3923     TIP3     H1       HT       0.417000       1.00800           0
     20345 TIP3     3923     TIP3     H2       HT       0.417000       1.00800           0
     20346 TIP3     3924     TIP3     OH2      OT      -0.834000       15.9994           0
     20347 TIP3     3924     TIP3     H1       HT       0.417000       1.00800           0
     20348 TIP3     3924     TIP3     H2       HT       0.417000       1.00800           0
     20349 TIP3     3925     TIP3     OH2      OT      -0.834000       15.9994           0
     20350 TIP3     3925     TIP3     H1       HT       0.417000       1.00800           0
     20351 TIP3     3925     TIP3     H2       HT       0.417000       1.00800           0
     20352 TIP3     3926     TIP3     OH2      OT      -0.834000       15.9994           0
     20353 TIP3     3926     TIP3     H1       HT       0.417000       1.00800           0
     20354 TIP3     3926     TIP3     H2       HT       0.417000       1.00800           0
     20355 TIP3     3927     TIP3     OH2      OT      -0.834000       15.9994           0
     20356 TIP3     3927     TIP3     H1       HT       0.417000       1.00800           0
     20357 TIP3     3927     TIP3     H2       HT       0.417000       1.00800           0
     20358 TIP3     3928     TIP3     OH2      OT      -0.834000       15.9994           0
     20359 TIP3     3928     TIP3     H1       HT       0.417000       1.00800           0
     20360 TIP3     3928     TIP3     H2       HT       0.417000       1.00800           0
     20361 TIP3     3929     TIP3     OH2      OT      -0.834000       15.9994           0
     20362 TIP3     3929     TIP3     H1       HT       0.417000       1.00800           0
     20363 TIP3     3929     TIP3     H2       HT       0.417000       1.00800           0
     20364 TIP3     3930     TIP3     OH2      OT      -0.834000       15.9994           0
     20365 TIP3     3930     TIP3     H1       HT       0.417000       1.00800           0
     20366 TIP3     3930     TIP3     H2       HT       0.417000       1.00800           0
     20367 TIP3     3931     TIP3     OH2      OT      -0.834000       15.9994           0
     20368 TIP3     3931     TIP3     H1       HT       0.417000       1.00800           0
     20369 TIP3     3931     TIP3     H2       HT       0.417000       1.00800           0
     20370 TIP3     3932     TIP3     OH2      OT      -0.834000       15.9994           0
     20371 TIP3     3932     TIP3     H1       HT       0.417000       1.00800           0
     20372 TIP3     3932     TIP3     H2       HT       0.417000       1.00800           0
     20373 TIP3     3933     TIP3     OH2      OT      -0.834000       15.9994           0
     20374 TIP3     3933     TIP3     H1       HT       0.417000       1.00800           0
     20375 TIP3     3933     TIP3     H2       HT       0.417000       1.00800           0
     20376 TIP3     3934     TIP3     OH2      OT      -0.834000       15.9994           0
     20377 TIP3     3934     TIP3     H1       HT       0.417000       1.00800           0
     20378 TIP3     3934     TIP3     H2       HT       0.417000       1.00800           0
     20379 TIP3     3935     TIP3     OH2      OT      -0.834000       15.9994           0
     20380 TIP3     3935     TIP3     H1       HT       0.417000       1.00800           0
     20381 TIP3     3935     TIP3     H2       HT       0.417000       1.00800           0
     20382 TIP3     3936     TIP3     OH2      OT      -0.834000       15.9994           0
     20383 TIP3     3936     TIP3     H1       HT       0.417000       1.00800           0
     20384 TIP3     3936     TIP3     H2       HT       0.417000       1.00800           0
     20385 TIP3     3937     TIP3     OH2      OT      -0.834000       15.9994           0
     20386 TIP3     3937     TIP3     H1       HT       0.417000       1.00800           0
     20387 TIP3     3937     TIP3     H2       HT       0.417000       1.00800           0
     20388 TIP3     3938     TIP3     OH2      OT      -0.834000       15.9994           0
     20389 TIP3     3938     TIP3     H1       HT       0.417000       1.00800           0
     20390 TIP3     3938     TIP3     H2       HT       0.417000       1.00800           0
     20391 TIP3     3939     TIP3     OH2      OT      -0.834000       15.9994           0
     20392 TIP3     3939     TIP3     H1       HT       0.417000       1.00800           0
     20393 TIP3     3939     TIP3     H2       HT       0.417000       1.00800           0
     20394 TIP3     3940     TIP3     OH2      OT      -0.834000       15.9994           0
     20395 TIP3     3940     TIP3     H1       HT       0.417000       1.00800           0
     20396 TIP3     3940     TIP3     H2       HT       0.417000       1.00800           0
     20397 TIP3     3941     TIP3     OH2      OT      -0.834000       15.9994           0
     20398 TIP3     3941     TIP3     H1       HT       0.417000       1.00800           0
     20399 TIP3     3941     TIP3     H2       HT       0.417000       1.00800           0
     20400 TIP3     3942     TIP3     OH2      OT      -0.834000       15.9994           0
     20401 TIP3     3942     TIP3     H1       HT       0.417000       1.00800           0
     20402 TIP3     3942     TIP3     H2       HT       0.417000       1.00800           0
     20403 TIP3     3943     TIP3     OH2      OT      -0.834000       15.9994           0
     20404 TIP3     3943     TIP3     H1       HT       0.417000       1.00800           0
     20405 TIP3     3943     TIP3     H2       HT       0.417000       1.00800           0
     20406 TIP3     3944     TIP3     OH2      OT      -0.834000       15.9994           0
     20407 TIP3     3944     TIP3     H1       HT       0.417000       1.00800           0
     20408 TIP3     3944     TIP3     H2       HT       0.417000       1.00800           0
     20409 TIP3     3945     TIP3     OH2      OT      -0.834000       15.9994           0
     20410 TIP3     3945     TIP3     H1       HT       0.417000       1.00800           0
     20411 TIP3     3945     TIP3     H2       HT       0.417000       1.00800           0
     20412 TIP3     3946     TIP3     OH2      OT      -0.834000       15.9994           0
     20413 TIP3     3946     TIP3     H1       HT       0.417000       1.00800           0
     20414 TIP3     3946     TIP3     H2       HT       0.417000       1.00800           0
     20415 TIP3     3947     TIP3     OH2      OT      -0.834000       15.9994           0
     20416 TIP3     3947     TIP3     H1       HT       0.417000       1.00800           0
     20417 TIP3     3947     TIP3     H2       HT       0.417000       1.00800           0
     20418 TIP3     3948     TIP3     OH2      OT      -0.834000       15.9994           0
     20419 TIP3     3948     TIP3     H1       HT       0.417000       1.00800           0
     20420 TIP3     3948     TIP3     H2       HT       0.417000       1.00800           0
     20421 TIP3     3949     TIP3     OH2      OT      -0.834000       15.9994           0
     20422 TIP3     3949     TIP3     H1       HT       0.417000       1.00800           0
     20423 TIP3     3949     TIP3     H2       HT       0.417000       1.00800           0
     20424 TIP3     3950     TIP3     OH2      OT      -0.834000       15.9994           0
     20425 TIP3     3950     TIP3     H1       HT       0.417000       1.00800           0
     20426 TIP3     3950     TIP3     H2       HT       0.417000       1.00800           0
     20427 TIP3     3951     TIP3     OH2      OT      -0.834000       15.9994           0
     20428 TIP3     3951     TIP3     H1       HT       0.417000       1.00800           0
     20429 TIP3     3951     TIP3     H2       HT       0.417000       1.00800           0
     20430 TIP3     3952     TIP3     OH2      OT      -0.834000       15.9994           0
     20431 TIP3     3952     TIP3     H1       HT       0.417000       1.00800           0
     20432 TIP3     3952     TIP3     H2       HT       0.417000       1.00800           0
     20433 TIP3     3953     TIP3     OH2      OT      -0.834000       15.9994           0
     20434 TIP3     3953     TIP3     H1       HT       0.417000       1.00800           0
     20435 TIP3     3953     TIP3     H2       HT       0.417000       1.00800           0
     20436 TIP3     3954     TIP3     OH2      OT      -0.834000       15.9994           0
     20437 TIP3     3954     TIP3     H1       HT       0.417000       1.00800           0
     20438 TIP3     3954     TIP3     H2       HT       0.417000       1.00800           0
     20439 TIP3     3955     TIP3     OH2      OT      -0.834000       15.9994           0
     20440 TIP3     3955     TIP3     H1       HT       0.417000       1.00800           0
     20441 TIP3     3955     TIP3     H2       HT       0.417000       1.00800           0
     20442 TIP3     3956     TIP3     OH2      OT      -0.834000       15.9994           0
     20443 TIP3     3956     TIP3     H1       HT       0.417000       1.00800           0
     20444 TIP3     3956     TIP3     H2       HT       0.417000       1.00800           0
     20445 TIP3     3957     TIP3     OH2      OT      -0.834000       15.9994           0
     20446 TIP3     3957     TIP3     H1       HT       0.417000       1.00800           0
     20447 TIP3     3957     TIP3     H2       HT       0.417000       1.00800           0
     20448 TIP3     3958     TIP3     OH2      OT      -0.834000       15.9994           0
     20449 TIP3     3958     TIP3     H1       HT       0.417000       1.00800           0
     20450 TIP3     3958     TIP3     H2       HT       0.417000       1.00800           0
     20451 TIP3     3959     TIP3     OH2      OT      -0.834000       15.9994           0
     20452 TIP3     3959     TIP3     H1       HT       0.417000       1.00800           0
     20453 TIP3     3959     TIP3     H2       HT       0.417000       1.00800           0
     20454 TIP3     3960     TIP3     OH2      OT      -0.834000       15.9994           0
     20455 TIP3     3960     TIP3     H1       HT       0.417000       1.00800           0
     20456 TIP3     3960     TIP3     H2       HT       0.417000       1.00800           0
     20457 TIP3     3961     TIP3     OH2      OT      -0.834000       15.9994           0
     20458 TIP3     3961     TIP3     H1       HT       0.417000       1.00800           0
     20459 TIP3     3961     TIP3     H2       HT       0.417000       1.00800           0
     20460 TIP3     3962     TIP3     OH2      OT      -0.834000       15.9994           0
     20461 TIP3     3962     TIP3     H1       HT       0.417000       1.00800           0
     20462 TIP3     3962     TIP3     H2       HT       0.417000       1.00800           0
     20463 TIP3     3963     TIP3     OH2      OT      -0.834000       15.9994           0
     20464 TIP3     3963     TIP3     H1       HT       0.417000       1.00800           0
     20465 TIP3     3963     TIP3     H2       HT       0.417000       1.00800           0
     20466 TIP3     3964     TIP3     OH2      OT      -0.834000       15.9994           0
     20467 TIP3     3964     TIP3     H1       HT       0.417000       1.00800           0
     20468 TIP3     3964     TIP3     H2       HT       0.417000       1.00800           0
     20469 TIP3     3965     TIP3     OH2      OT      -0.834000       15.9994           0
     20470 TIP3     3965     TIP3     H1       HT       0.417000       1.00800           0
     20471 TIP3     3965     TIP3     H2       HT       0.417000       1.00800           0
     20472 TIP3     3966     TIP3     OH2      OT      -0.834000       15.9994           0
     20473 TIP3     3966     TIP3     H1       HT       0.417000       1.00800           0
     20474 TIP3     3966     TIP3     H2       HT       0.417000       1.00800           0
     20475 TIP3     3967     TIP3     OH2      OT      -0.834000       15.9994           0
     20476 TIP3     3967     TIP3     H1       HT       0.417000       1.00800           0
     20477 TIP3     3967     TIP3     H2       HT       0.417000       1.00800           0
     20478 TIP3     3968     TIP3     OH2      OT      -0.834000       15.9994           0
     20479 TIP3     3968     TIP3     H1       HT       0.417000       1.00800           0
     20480 TIP3     3968     TIP3     H2       HT       0.417000       1.00800           0
     20481 TIP3     3969     TIP3     OH2      OT      -0.834000       15.9994           0
     20482 TIP3     3969     TIP3     H1       HT       0.417000       1.00800           0
     20483 TIP3     3969     TIP3     H2       HT       0.417000       1.00800           0
     20484 TIP3     3970     TIP3     OH2      OT      -0.834000       15.9994           0
     20485 TIP3     3970     TIP3     H1       HT       0.417000       1.00800           0
     20486 TIP3     3970     TIP3     H2       HT       0.417000       1.00800           0
     20487 TIP3     3971     TIP3     OH2      OT      -0.834000       15.9994           0
     20488 TIP3     3971     TIP3     H1       HT       0.417000       1.00800           0
     20489 TIP3     3971     TIP3     H2       HT       0.417000       1.00800           0
     20490 TIP3     3972     TIP3     OH2      OT      -0.834000       15.9994           0
     20491 TIP3     3972     TIP3     H1       HT       0.417000       1.00800           0
     20492 TIP3     3972     TIP3     H2       HT       0.417000       1.00800           0
     20493 TIP3     3973     TIP3     OH2      OT      -0.834000       15.9994           0
     20494 TIP3     3973     TIP3     H1       HT       0.417000       1.00800           0
     20495 TIP3     3973     TIP3     H2       HT       0.417000       1.00800           0
     20496 TIP3     3974     TIP3     OH2      OT      -0.834000       15.9994           0
     20497 TIP3     3974     TIP3     H1       HT       0.417000       1.00800           0
     20498 TIP3     3974     TIP3     H2       HT       0.417000       1.00800           0
     20499 TIP3     3975     TIP3     OH2      OT      -0.834000       15.9994           0
     20500 TIP3     3975     TIP3     H1       HT       0.417000       1.00800           0
     20501 TIP3     3975     TIP3     H2       HT       0.417000       1.00800           0
     20502 TIP3     3976     TIP3     OH2      OT      -0.834000       15.9994           0
     20503 TIP3     3976     TIP3     H1       HT       0.417000       1.00800           0
     20504 TIP3     3976     TIP3     H2       HT       0.417000       1.00800           0
     20505 TIP3     3977     TIP3     OH2      OT      -0.834000       15.9994           0
     20506 TIP3     3977     TIP3     H1       HT       0.417000       1.00800           0
     20507 TIP3     3977     TIP3     H2       HT       0.417000       1.00800           0
     20508 TIP3     3978     TIP3     OH2      OT      -0.834000       15.9994           0
     20509 TIP3     3978     TIP3     H1       HT       0.417000       1.00800           0
     20510 TIP3     3978     TIP3     H2       HT       0.417000       1.00800           0
     20511 TIP3     3979     TIP3     OH2      OT      -0.834000       15.9994           0
     20512 TIP3     3979     TIP3     H1       HT       0.417000       1.00800           0
     20513 TIP3     3979     TIP3     H2       HT       0.417000       1.00800           0
     20514 TIP3     3980     TIP3     OH2      OT      -0.834000       15.9994           0
     20515 TIP3     3980     TIP3     H1       HT       0.417000       1.00800           0
     20516 TIP3     3980     TIP3     H2       HT       0.417000       1.00800           0
     20517 TIP3     3981     TIP3     OH2      OT      -0.834000       15.9994           0
     20518 TIP3     3981     TIP3     H1       HT       0.417000       1.00800           0
     20519 TIP3     3981     TIP3     H2       HT       0.417000       1.00800           0
     20520 TIP3     3982     TIP3     OH2      OT      -0.834000       15.9994           0
     20521 TIP3     3982     TIP3     H1       HT       0.417000       1.00800           0
     20522 TIP3     3982     TIP3     H2       HT       0.417000       1.00800           0
     20523 TIP3     3983     TIP3     OH2      OT      -0.834000       15.9994           0
     20524 TIP3     3983     TIP3     H1       HT       0.417000       1.00800           0
     20525 TIP3     3983     TIP3     H2       HT       0.417000       1.00800           0
     20526 TIP3     3984     TIP3     OH2      OT      -0.834000       15.9994           0
     20527 TIP3     3984     TIP3     H1       HT       0.417000       1.00800           0
     20528 TIP3     3984     TIP3     H2       HT       0.417000       1.00800           0
     20529 TIP3     3985     TIP3     OH2      OT      -0.834000       15.9994           0
     20530 TIP3     3985     TIP3     H1       HT       0.417000       1.00800           0
     20531 TIP3     3985     TIP3     H2       HT       0.417000       1.00800           0
     20532 TIP3     3986     TIP3     OH2      OT      -0.834000       15.9994           0
     20533 TIP3     3986     TIP3     H1       HT       0.417000       1.00800           0
     20534 TIP3     3986     TIP3     H2       HT       0.417000       1.00800           0
     20535 TIP3     3987     TIP3     OH2      OT      -0.834000       15.9994           0
     20536 TIP3     3987     TIP3     H1       HT       0.417000       1.00800           0
     20537 TIP3     3987     TIP3     H2       HT       0.417000       1.00800           0
     20538 TIP3     3988     TIP3     OH2      OT      -0.834000       15.9994           0
     20539 TIP3     3988     TIP3     H1       HT       0.417000       1.00800           0
     20540 TIP3     3988     TIP3     H2       HT       0.417000       1.00800           0
     20541 TIP3     3989     TIP3     OH2      OT      -0.834000       15.9994           0
     20542 TIP3     3989     TIP3     H1       HT       0.417000       1.00800           0
     20543 TIP3     3989     TIP3     H2       HT       0.417000       1.00800           0
     20544 TIP3     3990     TIP3     OH2      OT      -0.834000       15.9994           0
     20545 TIP3     3990     TIP3     H1       HT       0.417000       1.00800           0
     20546 TIP3     3990     TIP3     H2       HT       0.417000       1.00800           0
     20547 TIP3     3991     TIP3     OH2      OT      -0.834000       15.9994           0
     20548 TIP3     3991     TIP3     H1       HT       0.417000       1.00800           0
     20549 TIP3     3991     TIP3     H2       HT       0.417000       1.00800           0
     20550 TIP3     3992     TIP3     OH2      OT      -0.834000       15.9994           0
     20551 TIP3     3992     TIP3     H1       HT       0.417000       1.00800           0
     20552 TIP3     3992     TIP3     H2       HT       0.417000       1.00800           0
     20553 TIP3     3993     TIP3     OH2      OT      -0.834000       15.9994           0
     20554 TIP3     3993     TIP3     H1       HT       0.417000       1.00800           0
     20555 TIP3     3993     TIP3     H2       HT       0.417000       1.00800           0
     20556 TIP3     3994     TIP3     OH2      OT      -0.834000       15.9994           0
     20557 TIP3     3994     TIP3     H1       HT       0.417000       1.00800           0
     20558 TIP3     3994     TIP3     H2       HT       0.417000       1.00800           0
     20559 TIP3     3995     TIP3     OH2      OT      -0.834000       15.9994           0
     20560 TIP3     3995     TIP3     H1       HT       0.417000       1.00800           0
     20561 TIP3     3995     TIP3     H2       HT       0.417000       1.00800           0
     20562 TIP3     3996     TIP3     OH2      OT      -0.834000       15.9994           0
     20563 TIP3     3996     TIP3     H1       HT       0.417000       1.00800           0
     20564 TIP3     3996     TIP3     H2       HT       0.417000       1.00800           0
     20565 TIP3     3997     TIP3     OH2      OT      -0.834000       15.9994           0
     20566 TIP3     3997     TIP3     H1       HT       0.417000       1.00800           0
     20567 TIP3     3997     TIP3     H2       HT       0.417000       1.00800           0
     20568 TIP3     3998     TIP3     OH2      OT      -0.834000       15.9994           0
     20569 TIP3     3998     TIP3     H1       HT       0.417000       1.00800           0
     20570 TIP3     3998     TIP3     H2       HT       0.417000       1.00800           0
     20571 TIP3     3999     TIP3     OH2      OT      -0.834000       15.9994           0
     20572 TIP3     3999     TIP3     H1       HT       0.417000       1.00800           0
     20573 TIP3     3999     TIP3     H2       HT       0.417000       1.00800           0
     20574 TIP3     4000     TIP3     OH2      OT      -0.834000       15.9994           0
     20575 TIP3     4000     TIP3     H1       HT       0.417000       1.00800           0
     20576 TIP3     4000     TIP3     H2       HT       0.417000       1.00800           0
     20577 TIP3     4001     TIP3     OH2      OT      -0.834000       15.9994           0
     20578 TIP3     4001     TIP3     H1       HT       0.417000       1.00800           0
     20579 TIP3     4001     TIP3     H2       HT       0.417000       1.00800           0
     20580 TIP3     4002     TIP3     OH2      OT      -0.834000       15.9994           0
     20581 TIP3     4002     TIP3     H1       HT       0.417000       1.00800           0
     20582 TIP3     4002     TIP3     H2       HT       0.417000       1.00800           0
     20583 TIP3     4003     TIP3     OH2      OT      -0.834000       15.9994           0
     20584 TIP3     4003     TIP3     H1       HT       0.417000       1.00800           0
     20585 TIP3     4003     TIP3     H2       HT       0.417000       1.00800           0
     20586 TIP3     4004     TIP3     OH2      OT      -0.834000       15.9994           0
     20587 TIP3     4004     TIP3     H1       HT       0.417000       1.00800           0
     20588 TIP3     4004     TIP3     H2       HT       0.417000       1.00800           0
     20589 TIP3     4005     TIP3     OH2      OT      -0.834000       15.9994           0
     20590 TIP3     4005     TIP3     H1       HT       0.417000       1.00800           0
     20591 TIP3     4005     TIP3     H2       HT       0.417000       1.00800           0
     20592 TIP3     4006     TIP3     OH2      OT      -0.834000       15.9994           0
     20593 TIP3     4006     TIP3     H1       HT       0.417000       1.00800           0
     20594 TIP3     4006     TIP3     H2       HT       0.417000       1.00800           0
     20595 TIP3     4007     TIP3     OH2      OT      -0.834000       15.9994           0
     20596 TIP3     4007     TIP3     H1       HT       0.417000       1.00800           0
     20597 TIP3     4007     TIP3     H2       HT       0.417000       1.00800           0
     20598 TIP3     4008     TIP3     OH2      OT      -0.834000       15.9994           0
     20599 TIP3     4008     TIP3     H1       HT       0.417000       1.00800           0
     20600 TIP3     4008     TIP3     H2       HT       0.417000       1.00800           0
     20601 TIP3     4009     TIP3     OH2      OT      -0.834000       15.9994           0
     20602 TIP3     4009     TIP3     H1       HT       0.417000       1.00800           0
     20603 TIP3     4009     TIP3     H2       HT       0.417000       1.00800           0
     20604 TIP3     4010     TIP3     OH2      OT      -0.834000       15.9994           0
     20605 TIP3     4010     TIP3     H1       HT       0.417000       1.00800           0
     20606 TIP3     4010     TIP3     H2       HT       0.417000       1.00800           0
     20607 TIP3     4011     TIP3     OH2      OT      -0.834000       15.9994           0
     20608 TIP3     4011     TIP3     H1       HT       0.417000       1.00800           0
     20609 TIP3     4011     TIP3     H2       HT       0.417000       1.00800           0
     20610 TIP3     4012     TIP3     OH2      OT      -0.834000       15.9994           0
     20611 TIP3     4012     TIP3     H1       HT       0.417000       1.00800           0
     20612 TIP3     4012     TIP3     H2       HT       0.417000       1.00800           0
     20613 TIP3     4013     TIP3     OH2      OT      -0.834000       15.9994           0
     20614 TIP3     4013     TIP3     H1       HT       0.417000       1.00800           0
     20615 TIP3     4013     TIP3     H2       HT       0.417000       1.00800           0
     20616 TIP3     4014     TIP3     OH2      OT      -0.834000       15.9994           0
     20617 TIP3     4014     TIP3     H1       HT       0.417000       1.00800           0
     20618 TIP3     4014     TIP3     H2       HT       0.417000       1.00800           0
     20619 TIP3     4015     TIP3     OH2      OT      -0.834000       15.9994           0
     20620 TIP3     4015     TIP3     H1       HT       0.417000       1.00800           0
     20621 TIP3     4015     TIP3     H2       HT       0.417000       1.00800           0
     20622 TIP3     4016     TIP3     OH2      OT      -0.834000       15.9994           0
     20623 TIP3     4016     TIP3     H1       HT       0.417000       1.00800           0
     20624 TIP3     4016     TIP3     H2       HT       0.417000       1.00800           0
     20625 TIP3     4017     TIP3     OH2      OT      -0.834000       15.9994           0
     20626 TIP3     4017     TIP3     H1       HT       0.417000       1.00800           0
     20627 TIP3     4017     TIP3     H2       HT       0.417000       1.00800           0
     20628 TIP3     4018     TIP3     OH2      OT      -0.834000       15.9994           0
     20629 TIP3     4018     TIP3     H1       HT       0.417000       1.00800           0
     20630 TIP3     4018     TIP3     H2       HT       0.417000       1.00800           0
     20631 TIP3     4019     TIP3     OH2      OT      -0.834000       15.9994           0
     20632 TIP3     4019     TIP3     H1       HT       0.417000       1.00800           0
     20633 TIP3     4019     TIP3     H2       HT       0.417000       1.00800           0
     20634 TIP3     4020     TIP3     OH2      OT      -0.834000       15.9994           0
     20635 TIP3     4020     TIP3     H1       HT       0.417000       1.00800           0
     20636 TIP3     4020     TIP3     H2       HT       0.417000       1.00800           0
     20637 TIP3     4021     TIP3     OH2      OT      -0.834000       15.9994           0
     20638 TIP3     4021     TIP3     H1       HT       0.417000       1.00800           0
     20639 TIP3     4021     TIP3     H2       HT       0.417000       1.00800           0
     20640 TIP3     4022     TIP3     OH2      OT      -0.834000       15.9994           0
     20641 TIP3     4022     TIP3     H1       HT       0.417000       1.00800           0
     20642 TIP3     4022     TIP3     H2       HT       0.417000       1.00800           0
     20643 TIP3     4023     TIP3     OH2      OT      -0.834000       15.9994           0
     20644 TIP3     4023     TIP3     H1       HT       0.417000       1.00800           0
     20645 TIP3     4023     TIP3     H2       HT       0.417000       1.00800           0
     20646 TIP3     4024     TIP3     OH2      OT      -0.834000       15.9994           0
     20647 TIP3     4024     TIP3     H1       HT       0.417000       1.00800           0
     20648 TIP3     4024     TIP3     H2       HT       0.417000       1.00800           0
     20649 TIP3     4025     TIP3     OH2      OT      -0.834000       15.9994           0
     20650 TIP3     4025     TIP3     H1       HT       0.417000       1.00800           0
     20651 TIP3     4025     TIP3     H2       HT       0.417000       1.00800           0
     20652 TIP3     4026     TIP3     OH2      OT      -0.834000       15.9994           0
     20653 TIP3     4026     TIP3     H1       HT       0.417000       1.00800           0
     20654 TIP3     4026     TIP3     H2       HT       0.417000       1.00800           0
     20655 TIP3     4027     TIP3     OH2      OT      -0.834000       15.9994           0
     20656 TIP3     4027     TIP3     H1       HT       0.417000       1.00800           0
     20657 TIP3     4027     TIP3     H2       HT       0.417000       1.00800           0
     20658 TIP3     4028     TIP3     OH2      OT      -0.834000       15.9994           0
     20659 TIP3     4028     TIP3     H1       HT       0.417000       1.00800           0
     20660 TIP3     4028     TIP3     H2       HT       0.417000       1.00800           0
     20661 TIP3     4029     TIP3     OH2      OT      -0.834000       15.9994           0
     20662 TIP3     4029     TIP3     H1       HT       0.417000       1.00800           0
     20663 TIP3     4029     TIP3     H2       HT       0.417000       1.00800           0
     20664 TIP3     4030     TIP3     OH2      OT      -0.834000       15.9994           0
     20665 TIP3     4030     TIP3     H1       HT       0.417000       1.00800           0
     20666 TIP3     4030     TIP3     H2       HT       0.417000       1.00800           0
     20667 TIP3     4031     TIP3     OH2      OT      -0.834000       15.9994           0
     20668 TIP3     4031     TIP3     H1       HT       0.417000       1.00800           0
     20669 TIP3     4031     TIP3     H2       HT       0.417000       1.00800           0
     20670 TIP3     4032     TIP3     OH2      OT      -0.834000       15.9994           0
     20671 TIP3     4032     TIP3     H1       HT       0.417000       1.00800           0
     20672 TIP3     4032     TIP3     H2       HT       0.417000       1.00800           0
     20673 TIP3     4033     TIP3     OH2      OT      -0.834000       15.9994           0
     20674 TIP3     4033     TIP3     H1       HT       0.417000       1.00800           0
     20675 TIP3     4033     TIP3     H2       HT       0.417000       1.00800           0
     20676 TIP3     4034     TIP3     OH2      OT      -0.834000       15.9994           0
     20677 TIP3     4034     TIP3     H1       HT       0.417000       1.00800           0
     20678 TIP3     4034     TIP3     H2       HT       0.417000       1.00800           0
     20679 TIP3     4035     TIP3     OH2      OT      -0.834000       15.9994           0
     20680 TIP3     4035     TIP3     H1       HT       0.417000       1.00800           0
     20681 TIP3     4035     TIP3     H2       HT       0.417000       1.00800           0
     20682 TIP3     4036     TIP3     OH2      OT      -0.834000       15.9994           0
     20683 TIP3     4036     TIP3     H1       HT       0.417000       1.00800           0
     20684 TIP3     4036     TIP3     H2       HT       0.417000       1.00800           0
     20685 TIP3     4037     TIP3     OH2      OT      -0.834000       15.9994           0
     20686 TIP3     4037     TIP3     H1       HT       0.417000       1.00800           0
     20687 TIP3     4037     TIP3     H2       HT       0.417000       1.00800           0
     20688 TIP3     4038     TIP3     OH2      OT      -0.834000       15.9994           0
     20689 TIP3     4038     TIP3     H1       HT       0.417000       1.00800           0
     20690 TIP3     4038     TIP3     H2       HT       0.417000       1.00800           0
     20691 TIP3     4039     TIP3     OH2      OT      -0.834000       15.9994           0
     20692 TIP3     4039     TIP3     H1       HT       0.417000       1.00800           0
     20693 TIP3     4039     TIP3     H2       HT       0.417000       1.00800           0
     20694 TIP3     4040     TIP3     OH2      OT      -0.834000       15.9994           0
     20695 TIP3     4040     TIP3     H1       HT       0.417000       1.00800           0
     20696 TIP3     4040     TIP3     H2       HT       0.417000       1.00800           0
     20697 TIP3     4041     TIP3     OH2      OT      -0.834000       15.9994           0
     20698 TIP3     4041     TIP3     H1       HT       0.417000       1.00800           0
     20699 TIP3     4041     TIP3     H2       HT       0.417000       1.00800           0
     20700 TIP3     4042     TIP3     OH2      OT      -0.834000       15.9994           0
     20701 TIP3     4042     TIP3     H1       HT       0.417000       1.00800           0
     20702 TIP3     4042     TIP3     H2       HT       0.417000       1.00800           0
     20703 TIP3     4043     TIP3     OH2      OT      -0.834000       15.9994           0
     20704 TIP3     4043     TIP3     H1       HT       0.417000       1.00800           0
     20705 TIP3     4043     TIP3     H2       HT       0.417000       1.00800           0
     20706 TIP3     4044     TIP3     OH2      OT      -0.834000       15.9994           0
     20707 TIP3     4044     TIP3     H1       HT       0.417000       1.00800           0
     20708 TIP3     4044     TIP3     H2       HT       0.417000       1.00800           0
     20709 TIP3     4045     TIP3     OH2      OT      -0.834000       15.9994           0
     20710 TIP3     4045     TIP3     H1       HT       0.417000       1.00800           0
     20711 TIP3     4045     TIP3     H2       HT       0.417000       1.00800           0
     20712 TIP3     4046     TIP3     OH2      OT      -0.834000       15.9994           0
     20713 TIP3     4046     TIP3     H1       HT       0.417000       1.00800           0
     20714 TIP3     4046     TIP3     H2       HT       0.417000       1.00800           0
     20715 TIP3     4047     TIP3     OH2      OT      -0.834000       15.9994           0
     20716 TIP3     4047     TIP3     H1       HT       0.417000       1.00800           0
     20717 TIP3     4047     TIP3     H2       HT       0.417000       1.00800           0
     20718 TIP3     4048     TIP3     OH2      OT      -0.834000       15.9994           0
     20719 TIP3     4048     TIP3     H1       HT       0.417000       1.00800           0
     20720 TIP3     4048     TIP3     H2       HT       0.417000       1.00800           0
     20721 TIP3     4049     TIP3     OH2      OT      -0.834000       15.9994           0
     20722 TIP3     4049     TIP3     H1       HT       0.417000       1.00800           0
     20723 TIP3     4049     TIP3     H2       HT       0.417000       1.00800           0
     20724 TIP3     4050     TIP3     OH2      OT      -0.834000       15.9994           0
     20725 TIP3     4050     TIP3     H1       HT       0.417000       1.00800           0
     20726 TIP3     4050     TIP3     H2       HT       0.417000       1.00800           0
     20727 TIP3     4051     TIP3     OH2      OT      -0.834000       15.9994           0
     20728 TIP3     4051     TIP3     H1       HT       0.417000       1.00800           0
     20729 TIP3     4051     TIP3     H2       HT       0.417000       1.00800           0
     20730 TIP3     4052     TIP3     OH2      OT      -0.834000       15.9994           0
     20731 TIP3     4052     TIP3     H1       HT       0.417000       1.00800           0
     20732 TIP3     4052     TIP3     H2       HT       0.417000       1.00800           0
     20733 TIP3     4053     TIP3     OH2      OT      -0.834000       15.9994           0
     20734 TIP3     4053     TIP3     H1       HT       0.417000       1.00800           0
     20735 TIP3     4053     TIP3     H2       HT       0.417000       1.00800           0
     20736 TIP3     4054     TIP3     OH2      OT      -0.834000       15.9994           0
     20737 TIP3     4054     TIP3     H1       HT       0.417000       1.00800           0
     20738 TIP3     4054     TIP3     H2       HT       0.417000       1.00800           0
     20739 TIP3     4055     TIP3     OH2      OT      -0.834000       15.9994           0
     20740 TIP3     4055     TIP3     H1       HT       0.417000       1.00800           0
     20741 TIP3     4055     TIP3     H2       HT       0.417000       1.00800           0
     20742 TIP3     4056     TIP3     OH2      OT      -0.834000       15.9994           0
     20743 TIP3     4056     TIP3     H1       HT       0.417000       1.00800           0
     20744 TIP3     4056     TIP3     H2       HT       0.417000       1.00800           0
     20745 TIP3     4057     TIP3     OH2      OT      -0.834000       15.9994           0
     20746 TIP3     4057     TIP3     H1       HT       0.417000       1.00800           0
     20747 TIP3     4057     TIP3     H2       HT       0.417000       1.00800           0
     20748 TIP3     4058     TIP3     OH2      OT      -0.834000       15.9994           0
     20749 TIP3     4058     TIP3     H1       HT       0.417000       1.00800           0
     20750 TIP3     4058     TIP3     H2       HT       0.417000       1.00800           0
     20751 TIP3     4059     TIP3     OH2      OT      -0.834000       15.9994           0
     20752 TIP3     4059     TIP3     H1       HT       0.417000       1.00800           0
     20753 TIP3     4059     TIP3     H2       HT       0.417000       1.00800           0
     20754 TIP3     4060     TIP3     OH2      OT      -0.834000       15.9994           0
     20755 TIP3     4060     TIP3     H1       HT       0.417000       1.00800           0
     20756 TIP3     4060     TIP3     H2       HT       0.417000       1.00800           0
     20757 TIP3     4061     TIP3     OH2      OT      -0.834000       15.9994           0
     20758 TIP3     4061     TIP3     H1       HT       0.417000       1.00800           0
     20759 TIP3     4061     TIP3     H2       HT       0.417000       1.00800           0
     20760 TIP3     4062     TIP3     OH2      OT      -0.834000       15.9994           0
     20761 TIP3     4062     TIP3     H1       HT       0.417000       1.00800           0
     20762 TIP3     4062     TIP3     H2       HT       0.417000       1.00800           0
     20763 TIP3     4063     TIP3     OH2      OT      -0.834000       15.9994           0
     20764 TIP3     4063     TIP3     H1       HT       0.417000       1.00800           0
     20765 TIP3     4063     TIP3     H2       HT       0.417000       1.00800           0
     20766 TIP3     4064     TIP3     OH2      OT      -0.834000       15.9994           0
     20767 TIP3     4064     TIP3     H1       HT       0.417000       1.00800           0
     20768 TIP3     4064     TIP3     H2       HT       0.417000       1.00800           0
     20769 TIP3     4065     TIP3     OH2      OT      -0.834000       15.9994           0
     20770 TIP3     4065     TIP3     H1       HT       0.417000       1.00800           0
     20771 TIP3     4065     TIP3     H2       HT       0.417000       1.00800           0
     20772 TIP3     4066     TIP3     OH2      OT      -0.834000       15.9994           0
     20773 TIP3     4066     TIP3     H1       HT       0.417000       1.00800           0
     20774 TIP3     4066     TIP3     H2       HT       0.417000       1.00800           0
     20775 TIP3     4067     TIP3     OH2      OT      -0.834000       15.9994           0
     20776 TIP3     4067     TIP3     H1       HT       0.417000       1.00800           0
     20777 TIP3     4067     TIP3     H2       HT       0.417000       1.00800           0
     20778 TIP3     4068     TIP3     OH2      OT      -0.834000       15.9994           0
     20779 TIP3     4068     TIP3     H1       HT       0.417000       1.00800           0
     20780 TIP3     4068     TIP3     H2       HT       0.417000       1.00800           0
     20781 TIP3     4069     TIP3     OH2      OT      -0.834000       15.9994           0
     20782 TIP3     4069     TIP3     H1       HT       0.417000       1.00800           0
     20783 TIP3     4069     TIP3     H2       HT       0.417000       1.00800           0
     20784 TIP3     4070     TIP3     OH2      OT      -0.834000       15.9994           0
     20785 TIP3     4070     TIP3     H1       HT       0.417000       1.00800           0
     20786 TIP3     4070     TIP3     H2       HT       0.417000       1.00800           0
     20787 TIP3     4071     TIP3     OH2      OT      -0.834000       15.9994           0
     20788 TIP3     4071     TIP3     H1       HT       0.417000       1.00800           0
     20789 TIP3     4071     TIP3     H2       HT       0.417000       1.00800           0
     20790 TIP3     4072     TIP3     OH2      OT      -0.834000       15.9994           0
     20791 TIP3     4072     TIP3     H1       HT       0.417000       1.00800           0
     20792 TIP3     4072     TIP3     H2       HT       0.417000       1.00800           0
     20793 TIP3     4073     TIP3     OH2      OT      -0.834000       15.9994           0
     20794 TIP3     4073     TIP3     H1       HT       0.417000       1.00800           0
     20795 TIP3     4073     TIP3     H2       HT       0.417000       1.00800           0
     20796 TIP3     4074     TIP3     OH2      OT      -0.834000       15.9994           0
     20797 TIP3     4074     TIP3     H1       HT       0.417000       1.00800           0
     20798 TIP3     4074     TIP3     H2       HT       0.417000       1.00800           0
     20799 TIP3     4075     TIP3     OH2      OT      -0.834000       15.9994           0
     20800 TIP3     4075     TIP3     H1       HT       0.417000       1.00800           0
     20801 TIP3     4075     TIP3     H2       HT       0.417000       1.00800           0
     20802 TIP3     4076     TIP3     OH2      OT      -0.834000       15.9994           0
     20803 TIP3     4076     TIP3     H1       HT       0.417000       1.00800           0
     20804 TIP3     4076     TIP3     H2       HT       0.417000       1.00800           0
     20805 TIP3     4077     TIP3     OH2      OT      -0.834000       15.9994           0
     20806 TIP3     4077     TIP3     H1       HT       0.417000       1.00800           0
     20807 TIP3     4077     TIP3     H2       HT       0.417000       1.00800           0
     20808 TIP3     4078     TIP3     OH2      OT      -0.834000       15.9994           0
     20809 TIP3     4078     TIP3     H1       HT       0.417000       1.00800           0
     20810 TIP3     4078     TIP3     H2       HT       0.417000       1.00800           0
     20811 TIP3     4079     TIP3     OH2      OT      -0.834000       15.9994           0
     20812 TIP3     4079     TIP3     H1       HT       0.417000       1.00800           0
     20813 TIP3     4079     TIP3     H2       HT       0.417000       1.00800           0
     20814 TIP3     4080     TIP3     OH2      OT      -0.834000       15.9994           0
     20815 TIP3     4080     TIP3     H1       HT       0.417000       1.00800           0
     20816 TIP3     4080     TIP3     H2       HT       0.417000       1.00800           0
     20817 TIP3     4081     TIP3     OH2      OT      -0.834000       15.9994           0
     20818 TIP3     4081     TIP3     H1       HT       0.417000       1.00800           0
     20819 TIP3     4081     TIP3     H2       HT       0.417000       1.00800           0
     20820 TIP3     4082     TIP3     OH2      OT      -0.834000       15.9994           0
     20821 TIP3     4082     TIP3     H1       HT       0.417000       1.00800           0
     20822 TIP3     4082     TIP3     H2       HT       0.417000       1.00800           0
     20823 TIP3     4083     TIP3     OH2      OT      -0.834000       15.9994           0
     20824 TIP3     4083     TIP3     H1       HT       0.417000       1.00800           0
     20825 TIP3     4083     TIP3     H2       HT       0.417000       1.00800           0
     20826 TIP3     4084     TIP3     OH2      OT      -0.834000       15.9994           0
     20827 TIP3     4084     TIP3     H1       HT       0.417000       1.00800           0
     20828 TIP3     4084     TIP3     H2       HT       0.417000       1.00800           0
     20829 TIP3     4085     TIP3     OH2      OT      -0.834000       15.9994           0
     20830 TIP3     4085     TIP3     H1       HT       0.417000       1.00800           0
     20831 TIP3     4085     TIP3     H2       HT       0.417000       1.00800           0
     20832 TIP3     4086     TIP3     OH2      OT      -0.834000       15.9994           0
     20833 TIP3     4086     TIP3     H1       HT       0.417000       1.00800           0
     20834 TIP3     4086     TIP3     H2       HT       0.417000       1.00800           0
     20835 TIP3     4087     TIP3     OH2      OT      -0.834000       15.9994           0
     20836 TIP3     4087     TIP3     H1       HT       0.417000       1.00800           0
     20837 TIP3     4087     TIP3     H2       HT       0.417000       1.00800           0
     20838 TIP3     4088     TIP3     OH2      OT      -0.834000       15.9994           0
     20839 TIP3     4088     TIP3     H1       HT       0.417000       1.00800           0
     20840 TIP3     4088     TIP3     H2       HT       0.417000       1.00800           0
     20841 TIP3     4089     TIP3     OH2      OT      -0.834000       15.9994           0
     20842 TIP3     4089     TIP3     H1       HT       0.417000       1.00800           0
     20843 TIP3     4089     TIP3     H2       HT       0.417000       1.00800           0
     20844 TIP3     4090     TIP3     OH2      OT      -0.834000       15.9994           0
     20845 TIP3     4090     TIP3     H1       HT       0.417000       1.00800           0
     20846 TIP3     4090     TIP3     H2       HT       0.417000       1.00800           0
     20847 TIP3     4091     TIP3     OH2      OT      -0.834000       15.9994           0
     20848 TIP3     4091     TIP3     H1       HT       0.417000       1.00800           0
     20849 TIP3     4091     TIP3     H2       HT       0.417000       1.00800           0
     20850 TIP3     4092     TIP3     OH2      OT      -0.834000       15.9994           0
     20851 TIP3     4092     TIP3     H1       HT       0.417000       1.00800           0
     20852 TIP3     4092     TIP3     H2       HT       0.417000       1.00800           0
     20853 TIP3     4093     TIP3     OH2      OT      -0.834000       15.9994           0
     20854 TIP3     4093     TIP3     H1       HT       0.417000       1.00800           0
     20855 TIP3     4093     TIP3     H2       HT       0.417000       1.00800           0
     20856 TIP3     4094     TIP3     OH2      OT      -0.834000       15.9994           0
     20857 TIP3     4094     TIP3     H1       HT       0.417000       1.00800           0
     20858 TIP3     4094     TIP3     H2       HT       0.417000       1.00800           0
     20859 TIP3     4095     TIP3     OH2      OT      -0.834000       15.9994           0
     20860 TIP3     4095     TIP3     H1       HT       0.417000       1.00800           0
     20861 TIP3     4095     TIP3     H2       HT       0.417000       1.00800           0
     20862 TIP3     4096     TIP3     OH2      OT      -0.834000       15.9994           0
     20863 TIP3     4096     TIP3     H1       HT       0.417000       1.00800           0
     20864 TIP3     4096     TIP3     H2       HT       0.417000       1.00800           0
     20865 TIP3     4097     TIP3     OH2      OT      -0.834000       15.9994           0
     20866 TIP3     4097     TIP3     H1       HT       0.417000       1.00800           0
     20867 TIP3     4097     TIP3     H2       HT       0.417000       1.00800           0
     20868 TIP3     4098     TIP3     OH2      OT      -0.834000       15.9994           0
     20869 TIP3     4098     TIP3     H1       HT       0.417000       1.00800           0
     20870 TIP3     4098     TIP3     H2       HT       0.417000       1.00800           0
     20871 TIP3     4099     TIP3     OH2      OT      -0.834000       15.9994           0
     20872 TIP3     4099     TIP3     H1       HT       0.417000       1.00800           0
     20873 TIP3     4099     TIP3     H2       HT       0.417000       1.00800           0
     20874 TIP3     4100     TIP3     OH2      OT      -0.834000       15.9994           0
     20875 TIP3     4100     TIP3     H1       HT       0.417000       1.00800           0
     20876 TIP3     4100     TIP3     H2       HT       0.417000       1.00800           0
     20877 TIP3     4101     TIP3     OH2      OT      -0.834000       15.9994           0
     20878 TIP3     4101     TIP3     H1       HT       0.417000       1.00800           0
     20879 TIP3     4101     TIP3     H2       HT       0.417000       1.00800           0
     20880 TIP3     4102     TIP3     OH2      OT      -0.834000       15.9994           0
     20881 TIP3     4102     TIP3     H1       HT       0.417000       1.00800           0
     20882 TIP3     4102     TIP3     H2       HT       0.417000       1.00800           0
     20883 TIP3     4103     TIP3     OH2      OT      -0.834000       15.9994           0
     20884 TIP3     4103     TIP3     H1       HT       0.417000       1.00800           0
     20885 TIP3     4103     TIP3     H2       HT       0.417000       1.00800           0
     20886 TIP3     4104     TIP3     OH2      OT      -0.834000       15.9994           0
     20887 TIP3     4104     TIP3     H1       HT       0.417000       1.00800           0
     20888 TIP3     4104     TIP3     H2       HT       0.417000       1.00800           0
     20889 TIP3     4105     TIP3     OH2      OT      -0.834000       15.9994           0
     20890 TIP3     4105     TIP3     H1       HT       0.417000       1.00800           0
     20891 TIP3     4105     TIP3     H2       HT       0.417000       1.00800           0
     20892 TIP3     4106     TIP3     OH2      OT      -0.834000       15.9994           0
     20893 TIP3     4106     TIP3     H1       HT       0.417000       1.00800           0
     20894 TIP3     4106     TIP3     H2       HT       0.417000       1.00800           0
     20895 TIP3     4107     TIP3     OH2      OT      -0.834000       15.9994           0
     20896 TIP3     4107     TIP3     H1       HT       0.417000       1.00800           0
     20897 TIP3     4107     TIP3     H2       HT       0.417000       1.00800           0
     20898 TIP3     4108     TIP3     OH2      OT      -0.834000       15.9994           0
     20899 TIP3     4108     TIP3     H1       HT       0.417000       1.00800           0
     20900 TIP3     4108     TIP3     H2       HT       0.417000       1.00800           0
     20901 TIP3     4109     TIP3     OH2      OT      -0.834000       15.9994           0
     20902 TIP3     4109     TIP3     H1       HT       0.417000       1.00800           0
     20903 TIP3     4109     TIP3     H2       HT       0.417000       1.00800           0
     20904 TIP3     4110     TIP3     OH2      OT      -0.834000       15.9994           0
     20905 TIP3     4110     TIP3     H1       HT       0.417000       1.00800           0
     20906 TIP3     4110     TIP3     H2       HT       0.417000       1.00800           0
     20907 TIP3     4111     TIP3     OH2      OT      -0.834000       15.9994           0
     20908 TIP3     4111     TIP3     H1       HT       0.417000       1.00800           0
     20909 TIP3     4111     TIP3     H2       HT       0.417000       1.00800           0
     20910 TIP3     4112     TIP3     OH2      OT      -0.834000       15.9994           0
     20911 TIP3     4112     TIP3     H1       HT       0.417000       1.00800           0
     20912 TIP3     4112     TIP3     H2       HT       0.417000       1.00800           0
     20913 TIP3     4113     TIP3     OH2      OT      -0.834000       15.9994           0
     20914 TIP3     4113     TIP3     H1       HT       0.417000       1.00800           0
     20915 TIP3     4113     TIP3     H2       HT       0.417000       1.00800           0
     20916 TIP3     4114     TIP3     OH2      OT      -0.834000       15.9994           0
     20917 TIP3     4114     TIP3     H1       HT       0.417000       1.00800           0
     20918 TIP3     4114     TIP3     H2       HT       0.417000       1.00800           0
     20919 TIP3     4115     TIP3     OH2      OT      -0.834000       15.9994           0
     20920 TIP3     4115     TIP3     H1       HT       0.417000       1.00800           0
     20921 TIP3     4115     TIP3     H2       HT       0.417000       1.00800           0
     20922 TIP3     4116     TIP3     OH2      OT      -0.834000       15.9994           0
     20923 TIP3     4116     TIP3     H1       HT       0.417000       1.00800           0
     20924 TIP3     4116     TIP3     H2       HT       0.417000       1.00800           0
     20925 TIP3     4117     TIP3     OH2      OT      -0.834000       15.9994           0
     20926 TIP3     4117     TIP3     H1       HT       0.417000       1.00800           0
     20927 TIP3     4117     TIP3     H2       HT       0.417000       1.00800           0
     20928 TIP3     4118     TIP3     OH2      OT      -0.834000       15.9994           0
     20929 TIP3     4118     TIP3     H1       HT       0.417000       1.00800           0
     20930 TIP3     4118     TIP3     H2       HT       0.417000       1.00800           0
     20931 TIP3     4119     TIP3     OH2      OT      -0.834000       15.9994           0
     20932 TIP3     4119     TIP3     H1       HT       0.417000       1.00800           0
     20933 TIP3     4119     TIP3     H2       HT       0.417000       1.00800           0
     20934 TIP3     4120     TIP3     OH2      OT      -0.834000       15.9994           0
     20935 TIP3     4120     TIP3     H1       HT       0.417000       1.00800           0
     20936 TIP3     4120     TIP3     H2       HT       0.417000       1.00800           0
     20937 TIP3     4121     TIP3     OH2      OT      -0.834000       15.9994           0
     20938 TIP3     4121     TIP3     H1       HT       0.417000       1.00800           0
     20939 TIP3     4121     TIP3     H2       HT       0.417000       1.00800           0
     20940 TIP3     4122     TIP3     OH2      OT      -0.834000       15.9994           0
     20941 TIP3     4122     TIP3     H1       HT       0.417000       1.00800           0
     20942 TIP3     4122     TIP3     H2       HT       0.417000       1.00800           0
     20943 TIP3     4123     TIP3     OH2      OT      -0.834000       15.9994           0
     20944 TIP3     4123     TIP3     H1       HT       0.417000       1.00800           0
     20945 TIP3     4123     TIP3     H2       HT       0.417000       1.00800           0
     20946 TIP3     4124     TIP3     OH2      OT      -0.834000       15.9994           0
     20947 TIP3     4124     TIP3     H1       HT       0.417000       1.00800           0
     20948 TIP3     4124     TIP3     H2       HT       0.417000       1.00800           0
     20949 TIP3     4125     TIP3     OH2      OT      -0.834000       15.9994           0
     20950 TIP3     4125     TIP3     H1       HT       0.417000       1.00800           0
     20951 TIP3     4125     TIP3     H2       HT       0.417000       1.00800           0
     20952 TIP3     4126     TIP3     OH2      OT      -0.834000       15.9994           0
     20953 TIP3     4126     TIP3     H1       HT       0.417000       1.00800           0
     20954 TIP3     4126     TIP3     H2       HT       0.417000       1.00800           0
     20955 TIP3     4127     TIP3     OH2      OT      -0.834000       15.9994           0
     20956 TIP3     4127     TIP3     H1       HT       0.417000       1.00800           0
     20957 TIP3     4127     TIP3     H2       HT       0.417000       1.00800           0
     20958 TIP3     4128     TIP3     OH2      OT      -0.834000       15.9994           0
     20959 TIP3     4128     TIP3     H1       HT       0.417000       1.00800           0
     20960 TIP3     4128     TIP3     H2       HT       0.417000       1.00800           0
     20961 TIP3     4129     TIP3     OH2      OT      -0.834000       15.9994           0
     20962 TIP3     4129     TIP3     H1       HT       0.417000       1.00800           0
     20963 TIP3     4129     TIP3     H2       HT       0.417000       1.00800           0
     20964 TIP3     4130     TIP3     OH2      OT      -0.834000       15.9994           0
     20965 TIP3     4130     TIP3     H1       HT       0.417000       1.00800           0
     20966 TIP3     4130     TIP3     H2       HT       0.417000       1.00800           0
     20967 TIP3     4131     TIP3     OH2      OT      -0.834000       15.9994           0
     20968 TIP3     4131     TIP3     H1       HT       0.417000       1.00800           0
     20969 TIP3     4131     TIP3     H2       HT       0.417000       1.00800           0
     20970 TIP3     4132     TIP3     OH2      OT      -0.834000       15.9994           0
     20971 TIP3     4132     TIP3     H1       HT       0.417000       1.00800           0
     20972 TIP3     4132     TIP3     H2       HT       0.417000       1.00800           0
     20973 TIP3     4133     TIP3     OH2      OT      -0.834000       15.9994           0
     20974 TIP3     4133     TIP3     H1       HT       0.417000       1.00800           0
     20975 TIP3     4133     TIP3     H2       HT       0.417000       1.00800           0
     20976 TIP3     4134     TIP3     OH2      OT      -0.834000       15.9994           0
     20977 TIP3     4134     TIP3     H1       HT       0.417000       1.00800           0
     20978 TIP3     4134     TIP3     H2       HT       0.417000       1.00800           0
     20979 TIP3     4135     TIP3     OH2      OT      -0.834000       15.9994           0
     20980 TIP3     4135     TIP3     H1       HT       0.417000       1.00800           0
     20981 TIP3     4135     TIP3     H2       HT       0.417000       1.00800           0
     20982 TIP3     4136     TIP3     OH2      OT      -0.834000       15.9994           0
     20983 TIP3     4136     TIP3     H1       HT       0.417000       1.00800           0
     20984 TIP3     4136     TIP3     H2       HT       0.417000       1.00800           0
     20985 TIP3     4137     TIP3     OH2      OT      -0.834000       15.9994           0
     20986 TIP3     4137     TIP3     H1       HT       0.417000       1.00800           0
     20987 TIP3     4137     TIP3     H2       HT       0.417000       1.00800           0
     20988 TIP3     4138     TIP3     OH2      OT      -0.834000       15.9994           0
     20989 TIP3     4138     TIP3     H1       HT       0.417000       1.00800           0
     20990 TIP3     4138     TIP3     H2       HT       0.417000       1.00800           0
     20991 TIP3     4139     TIP3     OH2      OT      -0.834000       15.9994           0
     20992 TIP3     4139     TIP3     H1       HT       0.417000       1.00800           0
     20993 TIP3     4139     TIP3     H2       HT       0.417000       1.00800           0
     20994 TIP3     4140     TIP3     OH2      OT      -0.834000       15.9994           0
     20995 TIP3     4140     TIP3     H1       HT       0.417000       1.00800           0
     20996 TIP3     4140     TIP3     H2       HT       0.417000       1.00800           0
     20997 TIP3     4141     TIP3     OH2      OT      -0.834000       15.9994           0
     20998 TIP3     4141     TIP3     H1       HT       0.417000       1.00800           0
     20999 TIP3     4141     TIP3     H2       HT       0.417000       1.00800           0
     21000 TIP3     4142     TIP3     OH2      OT      -0.834000       15.9994           0
     21001 TIP3     4142     TIP3     H1       HT       0.417000       1.00800           0
     21002 TIP3     4142     TIP3     H2       HT       0.417000       1.00800           0
     21003 TIP3     4143     TIP3     OH2      OT      -0.834000       15.9994           0
     21004 TIP3     4143     TIP3     H1       HT       0.417000       1.00800           0
     21005 TIP3     4143     TIP3     H2       HT       0.417000       1.00800           0
     21006 TIP3     4144     TIP3     OH2      OT      -0.834000       15.9994           0
     21007 TIP3     4144     TIP3     H1       HT       0.417000       1.00800           0
     21008 TIP3     4144     TIP3     H2       HT       0.417000       1.00800           0
     21009 TIP3     4145     TIP3     OH2      OT      -0.834000       15.9994           0
     21010 TIP3     4145     TIP3     H1       HT       0.417000       1.00800           0
     21011 TIP3     4145     TIP3     H2       HT       0.417000       1.00800           0
     21012 TIP3     4146     TIP3     OH2      OT      -0.834000       15.9994           0
     21013 TIP3     4146     TIP3     H1       HT       0.417000       1.00800           0
     21014 TIP3     4146     TIP3     H2       HT       0.417000       1.00800           0
     21015 TIP3     4147     TIP3     OH2      OT      -0.834000       15.9994           0
     21016 TIP3     4147     TIP3     H1       HT       0.417000       1.00800           0
     21017 TIP3     4147     TIP3     H2       HT       0.417000       1.00800           0
     21018 TIP3     4148     TIP3     OH2      OT      -0.834000       15.9994           0
     21019 TIP3     4148     TIP3     H1       HT       0.417000       1.00800           0
     21020 TIP3     4148     TIP3     H2       HT       0.417000       1.00800           0
     21021 TIP3     4149     TIP3     OH2      OT      -0.834000       15.9994           0
     21022 TIP3     4149     TIP3     H1       HT       0.417000       1.00800           0
     21023 TIP3     4149     TIP3     H2       HT       0.417000       1.00800           0
     21024 TIP3     4150     TIP3     OH2      OT      -0.834000       15.9994           0
     21025 TIP3     4150     TIP3     H1       HT       0.417000       1.00800           0
     21026 TIP3     4150     TIP3     H2       HT       0.417000       1.00800           0
     21027 TIP3     4151     TIP3     OH2      OT      -0.834000       15.9994           0
     21028 TIP3     4151     TIP3     H1       HT       0.417000       1.00800           0
     21029 TIP3     4151     TIP3     H2       HT       0.417000       1.00800           0
     21030 TIP3     4152     TIP3     OH2      OT      -0.834000       15.9994           0
     21031 TIP3     4152     TIP3     H1       HT       0.417000       1.00800           0
     21032 TIP3     4152     TIP3     H2       HT       0.417000       1.00800           0
     21033 TIP3     4153     TIP3     OH2      OT      -0.834000       15.9994           0
     21034 TIP3     4153     TIP3     H1       HT       0.417000       1.00800           0
     21035 TIP3     4153     TIP3     H2       HT       0.417000       1.00800           0
     21036 TIP3     4154     TIP3     OH2      OT      -0.834000       15.9994           0
     21037 TIP3     4154     TIP3     H1       HT       0.417000       1.00800           0
     21038 TIP3     4154     TIP3     H2       HT       0.417000       1.00800           0
     21039 TIP3     4155     TIP3     OH2      OT      -0.834000       15.9994           0
     21040 TIP3     4155     TIP3     H1       HT       0.417000       1.00800           0
     21041 TIP3     4155     TIP3     H2       HT       0.417000       1.00800           0
     21042 TIP3     4156     TIP3     OH2      OT      -0.834000       15.9994           0
     21043 TIP3     4156     TIP3     H1       HT       0.417000       1.00800           0
     21044 TIP3     4156     TIP3     H2       HT       0.417000       1.00800           0
     21045 TIP3     4157     TIP3     OH2      OT      -0.834000       15.9994           0
     21046 TIP3     4157     TIP3     H1       HT       0.417000       1.00800           0
     21047 TIP3     4157     TIP3     H2       HT       0.417000       1.00800           0
     21048 TIP3     4158     TIP3     OH2      OT      -0.834000       15.9994           0
     21049 TIP3     4158     TIP3     H1       HT       0.417000       1.00800           0
     21050 TIP3     4158     TIP3     H2       HT       0.417000       1.00800           0
     21051 TIP3     4159     TIP3     OH2      OT      -0.834000       15.9994           0
     21052 TIP3     4159     TIP3     H1       HT       0.417000       1.00800           0
     21053 TIP3     4159     TIP3     H2       HT       0.417000       1.00800           0
     21054 TIP3     4160     TIP3     OH2      OT      -0.834000       15.9994           0
     21055 TIP3     4160     TIP3     H1       HT       0.417000       1.00800           0
     21056 TIP3     4160     TIP3     H2       HT       0.417000       1.00800           0
     21057 TIP3     4161     TIP3     OH2      OT      -0.834000       15.9994           0
     21058 TIP3     4161     TIP3     H1       HT       0.417000       1.00800           0
     21059 TIP3     4161     TIP3     H2       HT       0.417000       1.00800           0
     21060 TIP3     4162     TIP3     OH2      OT      -0.834000       15.9994           0
     21061 TIP3     4162     TIP3     H1       HT       0.417000       1.00800           0
     21062 TIP3     4162     TIP3     H2       HT       0.417000       1.00800           0
     21063 TIP3     4163     TIP3     OH2      OT      -0.834000       15.9994           0
     21064 TIP3     4163     TIP3     H1       HT       0.417000       1.00800           0
     21065 TIP3     4163     TIP3     H2       HT       0.417000       1.00800           0
     21066 TIP3     4164     TIP3     OH2      OT      -0.834000       15.9994           0
     21067 TIP3     4164     TIP3     H1       HT       0.417000       1.00800           0
     21068 TIP3     4164     TIP3     H2       HT       0.417000       1.00800           0
     21069 TIP3     4165     TIP3     OH2      OT      -0.834000       15.9994           0
     21070 TIP3     4165     TIP3     H1       HT       0.417000       1.00800           0
     21071 TIP3     4165     TIP3     H2       HT       0.417000       1.00800           0
     21072 TIP3     4166     TIP3     OH2      OT      -0.834000       15.9994           0
     21073 TIP3     4166     TIP3     H1       HT       0.417000       1.00800           0
     21074 TIP3     4166     TIP3     H2       HT       0.417000       1.00800           0
     21075 TIP3     4167     TIP3     OH2      OT      -0.834000       15.9994           0
     21076 TIP3     4167     TIP3     H1       HT       0.417000       1.00800           0
     21077 TIP3     4167     TIP3     H2       HT       0.417000       1.00800           0
     21078 TIP3     4168     TIP3     OH2      OT      -0.834000       15.9994           0
     21079 TIP3     4168     TIP3     H1       HT       0.417000       1.00800           0
     21080 TIP3     4168     TIP3     H2       HT       0.417000       1.00800           0
     21081 TIP3     4169     TIP3     OH2      OT      -0.834000       15.9994           0
     21082 TIP3     4169     TIP3     H1       HT       0.417000       1.00800           0
     21083 TIP3     4169     TIP3     H2       HT       0.417000       1.00800           0
     21084 TIP3     4170     TIP3     OH2      OT      -0.834000       15.9994           0
     21085 TIP3     4170     TIP3     H1       HT       0.417000       1.00800           0
     21086 TIP3     4170     TIP3     H2       HT       0.417000       1.00800           0
     21087 TIP3     4171     TIP3     OH2      OT      -0.834000       15.9994           0
     21088 TIP3     4171     TIP3     H1       HT       0.417000       1.00800           0
     21089 TIP3     4171     TIP3     H2       HT       0.417000       1.00800           0
     21090 TIP3     4172     TIP3     OH2      OT      -0.834000       15.9994           0
     21091 TIP3     4172     TIP3     H1       HT       0.417000       1.00800           0
     21092 TIP3     4172     TIP3     H2       HT       0.417000       1.00800           0
     21093 TIP3     4173     TIP3     OH2      OT      -0.834000       15.9994           0
     21094 TIP3     4173     TIP3     H1       HT       0.417000       1.00800           0
     21095 TIP3     4173     TIP3     H2       HT       0.417000       1.00800           0
     21096 TIP3     4174     TIP3     OH2      OT      -0.834000       15.9994           0
     21097 TIP3     4174     TIP3     H1       HT       0.417000       1.00800           0
     21098 TIP3     4174     TIP3     H2       HT       0.417000       1.00800           0
     21099 TIP3     4175     TIP3     OH2      OT      -0.834000       15.9994           0
     21100 TIP3     4175     TIP3     H1       HT       0.417000       1.00800           0
     21101 TIP3     4175     TIP3     H2       HT       0.417000       1.00800           0
     21102 TIP3     4176     TIP3     OH2      OT      -0.834000       15.9994           0
     21103 TIP3     4176     TIP3     H1       HT       0.417000       1.00800           0
     21104 TIP3     4176     TIP3     H2       HT       0.417000       1.00800           0
     21105 TIP3     4177     TIP3     OH2      OT      -0.834000       15.9994           0
     21106 TIP3     4177     TIP3     H1       HT       0.417000       1.00800           0
     21107 TIP3     4177     TIP3     H2       HT       0.417000       1.00800           0
     21108 TIP3     4178     TIP3     OH2      OT      -0.834000       15.9994           0
     21109 TIP3     4178     TIP3     H1       HT       0.417000       1.00800           0
     21110 TIP3     4178     TIP3     H2       HT       0.417000       1.00800           0
     21111 TIP3     4179     TIP3     OH2      OT      -0.834000       15.9994           0
     21112 TIP3     4179     TIP3     H1       HT       0.417000       1.00800           0
     21113 TIP3     4179     TIP3     H2       HT       0.417000       1.00800           0
     21114 TIP3     4180     TIP3     OH2      OT      -0.834000       15.9994           0
     21115 TIP3     4180     TIP3     H1       HT       0.417000       1.00800           0
     21116 TIP3     4180     TIP3     H2       HT       0.417000       1.00800           0
     21117 TIP3     4181     TIP3     OH2      OT      -0.834000       15.9994           0
     21118 TIP3     4181     TIP3     H1       HT       0.417000       1.00800           0
     21119 TIP3     4181     TIP3     H2       HT       0.417000       1.00800           0
     21120 TIP3     4182     TIP3     OH2      OT      -0.834000       15.9994           0
     21121 TIP3     4182     TIP3     H1       HT       0.417000       1.00800           0
     21122 TIP3     4182     TIP3     H2       HT       0.417000       1.00800           0
     21123 TIP3     4183     TIP3     OH2      OT      -0.834000       15.9994           0
     21124 TIP3     4183     TIP3     H1       HT       0.417000       1.00800           0
     21125 TIP3     4183     TIP3     H2       HT       0.417000       1.00800           0
     21126 TIP3     4184     TIP3     OH2      OT      -0.834000       15.9994           0
     21127 TIP3     4184     TIP3     H1       HT       0.417000       1.00800           0
     21128 TIP3     4184     TIP3     H2       HT       0.417000       1.00800           0
     21129 TIP3     4185     TIP3     OH2      OT      -0.834000       15.9994           0
     21130 TIP3     4185     TIP3     H1       HT       0.417000       1.00800           0
     21131 TIP3     4185     TIP3     H2       HT       0.417000       1.00800           0
     21132 TIP3     4186     TIP3     OH2      OT      -0.834000       15.9994           0
     21133 TIP3     4186     TIP3     H1       HT       0.417000       1.00800           0
     21134 TIP3     4186     TIP3     H2       HT       0.417000       1.00800           0
     21135 TIP3     4187     TIP3     OH2      OT      -0.834000       15.9994           0
     21136 TIP3     4187     TIP3     H1       HT       0.417000       1.00800           0
     21137 TIP3     4187     TIP3     H2       HT       0.417000       1.00800           0
     21138 TIP3     4188     TIP3     OH2      OT      -0.834000       15.9994           0
     21139 TIP3     4188     TIP3     H1       HT       0.417000       1.00800           0
     21140 TIP3     4188     TIP3     H2       HT       0.417000       1.00800           0
     21141 TIP3     4189     TIP3     OH2      OT      -0.834000       15.9994           0
     21142 TIP3     4189     TIP3     H1       HT       0.417000       1.00800           0
     21143 TIP3     4189     TIP3     H2       HT       0.417000       1.00800           0
     21144 TIP3     4190     TIP3     OH2      OT      -0.834000       15.9994           0
     21145 TIP3     4190     TIP3     H1       HT       0.417000       1.00800           0
     21146 TIP3     4190     TIP3     H2       HT       0.417000       1.00800           0
     21147 TIP3     4191     TIP3     OH2      OT      -0.834000       15.9994           0
     21148 TIP3     4191     TIP3     H1       HT       0.417000       1.00800           0
     21149 TIP3     4191     TIP3     H2       HT       0.417000       1.00800           0
     21150 TIP3     4192     TIP3     OH2      OT      -0.834000       15.9994           0
     21151 TIP3     4192     TIP3     H1       HT       0.417000       1.00800           0
     21152 TIP3     4192     TIP3     H2       HT       0.417000       1.00800           0
     21153 TIP3     4193     TIP3     OH2      OT      -0.834000       15.9994           0
     21154 TIP3     4193     TIP3     H1       HT       0.417000       1.00800           0
     21155 TIP3     4193     TIP3     H2       HT       0.417000       1.00800           0
     21156 TIP3     4194     TIP3     OH2      OT      -0.834000       15.9994           0
     21157 TIP3     4194     TIP3     H1       HT       0.417000       1.00800           0
     21158 TIP3     4194     TIP3     H2       HT       0.417000       1.00800           0
     21159 TIP3     4195     TIP3     OH2      OT      -0.834000       15.9994           0
     21160 TIP3     4195     TIP3     H1       HT       0.417000       1.00800           0
     21161 TIP3     4195     TIP3     H2       HT       0.417000       1.00800           0
     21162 TIP3     4196     TIP3     OH2      OT      -0.834000       15.9994           0
     21163 TIP3     4196     TIP3     H1       HT       0.417000       1.00800           0
     21164 TIP3     4196     TIP3     H2       HT       0.417000       1.00800           0
     21165 TIP3     4197     TIP3     OH2      OT      -0.834000       15.9994           0
     21166 TIP3     4197     TIP3     H1       HT       0.417000       1.00800           0
     21167 TIP3     4197     TIP3     H2       HT       0.417000       1.00800           0
     21168 TIP3     4198     TIP3     OH2      OT      -0.834000       15.9994           0
     21169 TIP3     4198     TIP3     H1       HT       0.417000       1.00800           0
     21170 TIP3     4198     TIP3     H2       HT       0.417000       1.00800           0
     21171 TIP3     4199     TIP3     OH2      OT      -0.834000       15.9994           0
     21172 TIP3     4199     TIP3     H1       HT       0.417000       1.00800           0
     21173 TIP3     4199     TIP3     H2       HT       0.417000       1.00800           0
     21174 TIP3     4200     TIP3     OH2      OT      -0.834000       15.9994           0
     21175 TIP3     4200     TIP3     H1       HT       0.417000       1.00800           0
     21176 TIP3     4200     TIP3     H2       HT       0.417000       1.00800           0
     21177 TIP3     4201     TIP3     OH2      OT      -0.834000       15.9994           0
     21178 TIP3     4201     TIP3     H1       HT       0.417000       1.00800           0
     21179 TIP3     4201     TIP3     H2       HT       0.417000       1.00800           0
     21180 TIP3     4202     TIP3     OH2      OT      -0.834000       15.9994           0
     21181 TIP3     4202     TIP3     H1       HT       0.417000       1.00800           0
     21182 TIP3     4202     TIP3     H2       HT       0.417000       1.00800           0
     21183 TIP3     4203     TIP3     OH2      OT      -0.834000       15.9994           0
     21184 TIP3     4203     TIP3     H1       HT       0.417000       1.00800           0
     21185 TIP3     4203     TIP3     H2       HT       0.417000       1.00800           0
     21186 TIP3     4204     TIP3     OH2      OT      -0.834000       15.9994           0
     21187 TIP3     4204     TIP3     H1       HT       0.417000       1.00800           0
     21188 TIP3     4204     TIP3     H2       HT       0.417000       1.00800           0
     21189 TIP3     4205     TIP3     OH2      OT      -0.834000       15.9994           0
     21190 TIP3     4205     TIP3     H1       HT       0.417000       1.00800           0
     21191 TIP3     4205     TIP3     H2       HT       0.417000       1.00800           0
     21192 TIP3     4206     TIP3     OH2      OT      -0.834000       15.9994           0
     21193 TIP3     4206     TIP3     H1       HT       0.417000       1.00800           0
     21194 TIP3     4206     TIP3     H2       HT       0.417000       1.00800           0
     21195 TIP3     4207     TIP3     OH2      OT      -0.834000       15.9994           0
     21196 TIP3     4207     TIP3     H1       HT       0.417000       1.00800           0
     21197 TIP3     4207     TIP3     H2       HT       0.417000       1.00800           0
     21198 TIP3     4208     TIP3     OH2      OT      -0.834000       15.9994           0
     21199 TIP3     4208     TIP3     H1       HT       0.417000       1.00800           0
     21200 TIP3     4208     TIP3     H2       HT       0.417000       1.00800           0
     21201 TIP3     4209     TIP3     OH2      OT      -0.834000       15.9994           0
     21202 TIP3     4209     TIP3     H1       HT       0.417000       1.00800           0
     21203 TIP3     4209     TIP3     H2       HT       0.417000       1.00800           0
     21204 TIP3     4210     TIP3     OH2      OT      -0.834000       15.9994           0
     21205 TIP3     4210     TIP3     H1       HT       0.417000       1.00800           0
     21206 TIP3     4210     TIP3     H2       HT       0.417000       1.00800           0
     21207 TIP3     4211     TIP3     OH2      OT      -0.834000       15.9994           0
     21208 TIP3     4211     TIP3     H1       HT       0.417000       1.00800           0
     21209 TIP3     4211     TIP3     H2       HT       0.417000       1.00800           0
     21210 TIP3     4212     TIP3     OH2      OT      -0.834000       15.9994           0
     21211 TIP3     4212     TIP3     H1       HT       0.417000       1.00800           0
     21212 TIP3     4212     TIP3     H2       HT       0.417000       1.00800           0
     21213 TIP3     4213     TIP3     OH2      OT      -0.834000       15.9994           0
     21214 TIP3     4213     TIP3     H1       HT       0.417000       1.00800           0
     21215 TIP3     4213     TIP3     H2       HT       0.417000       1.00800           0
     21216 TIP3     4214     TIP3     OH2      OT      -0.834000       15.9994           0
     21217 TIP3     4214     TIP3     H1       HT       0.417000       1.00800           0
     21218 TIP3     4214     TIP3     H2       HT       0.417000       1.00800           0
     21219 TIP3     4215     TIP3     OH2      OT      -0.834000       15.9994           0
     21220 TIP3     4215     TIP3     H1       HT       0.417000       1.00800           0
     21221 TIP3     4215     TIP3     H2       HT       0.417000       1.00800           0
     21222 TIP3     4216     TIP3     OH2      OT      -0.834000       15.9994           0
     21223 TIP3     4216     TIP3     H1       HT       0.417000       1.00800           0
     21224 TIP3     4216     TIP3     H2       HT       0.417000       1.00800           0
     21225 TIP3     4217     TIP3     OH2      OT      -0.834000       15.9994           0
     21226 TIP3     4217     TIP3     H1       HT       0.417000       1.00800           0
     21227 TIP3     4217     TIP3     H2       HT       0.417000       1.00800           0
     21228 TIP3     4218     TIP3     OH2      OT      -0.834000       15.9994           0
     21229 TIP3     4218     TIP3     H1       HT       0.417000       1.00800           0
     21230 TIP3     4218     TIP3     H2       HT       0.417000       1.00800           0
     21231 TIP3     4219     TIP3     OH2      OT      -0.834000       15.9994           0
     21232 TIP3     4219     TIP3     H1       HT       0.417000       1.00800           0
     21233 TIP3     4219     TIP3     H2       HT       0.417000       1.00800           0
     21234 TIP3     4220     TIP3     OH2      OT      -0.834000       15.9994           0
     21235 TIP3     4220     TIP3     H1       HT       0.417000       1.00800           0
     21236 TIP3     4220     TIP3     H2       HT       0.417000       1.00800           0
     21237 TIP3     4221     TIP3     OH2      OT      -0.834000       15.9994           0
     21238 TIP3     4221     TIP3     H1       HT       0.417000       1.00800           0
     21239 TIP3     4221     TIP3     H2       HT       0.417000       1.00800           0
     21240 TIP3     4222     TIP3     OH2      OT      -0.834000       15.9994           0
     21241 TIP3     4222     TIP3     H1       HT       0.417000       1.00800           0
     21242 TIP3     4222     TIP3     H2       HT       0.417000       1.00800           0
     21243 TIP3     4223     TIP3     OH2      OT      -0.834000       15.9994           0
     21244 TIP3     4223     TIP3     H1       HT       0.417000       1.00800           0
     21245 TIP3     4223     TIP3     H2       HT       0.417000       1.00800           0
     21246 TIP3     4224     TIP3     OH2      OT      -0.834000       15.9994           0
     21247 TIP3     4224     TIP3     H1       HT       0.417000       1.00800           0
     21248 TIP3     4224     TIP3     H2       HT       0.417000       1.00800           0
     21249 TIP3     4225     TIP3     OH2      OT      -0.834000       15.9994           0
     21250 TIP3     4225     TIP3     H1       HT       0.417000       1.00800           0
     21251 TIP3     4225     TIP3     H2       HT       0.417000       1.00800           0
     21252 TIP3     4226     TIP3     OH2      OT      -0.834000       15.9994           0
     21253 TIP3     4226     TIP3     H1       HT       0.417000       1.00800           0
     21254 TIP3     4226     TIP3     H2       HT       0.417000       1.00800           0
     21255 TIP3     4227     TIP3     OH2      OT      -0.834000       15.9994           0
     21256 TIP3     4227     TIP3     H1       HT       0.417000       1.00800           0
     21257 TIP3     4227     TIP3     H2       HT       0.417000       1.00800           0
     21258 TIP3     4228     TIP3     OH2      OT      -0.834000       15.9994           0
     21259 TIP3     4228     TIP3     H1       HT       0.417000       1.00800           0
     21260 TIP3     4228     TIP3     H2       HT       0.417000       1.00800           0
     21261 TIP3     4229     TIP3     OH2      OT      -0.834000       15.9994           0
     21262 TIP3     4229     TIP3     H1       HT       0.417000       1.00800           0
     21263 TIP3     4229     TIP3     H2       HT       0.417000       1.00800           0
     21264 TIP3     4230     TIP3     OH2      OT      -0.834000       15.9994           0
     21265 TIP3     4230     TIP3     H1       HT       0.417000       1.00800           0
     21266 TIP3     4230     TIP3     H2       HT       0.417000       1.00800           0
     21267 TIP3     4231     TIP3     OH2      OT      -0.834000       15.9994           0
     21268 TIP3     4231     TIP3     H1       HT       0.417000       1.00800           0
     21269 TIP3     4231     TIP3     H2       HT       0.417000       1.00800           0
     21270 TIP3     4232     TIP3     OH2      OT      -0.834000       15.9994           0
     21271 TIP3     4232     TIP3     H1       HT       0.417000       1.00800           0
     21272 TIP3     4232     TIP3     H2       HT       0.417000       1.00800           0
     21273 TIP3     4233     TIP3     OH2      OT      -0.834000       15.9994           0
     21274 TIP3     4233     TIP3     H1       HT       0.417000       1.00800           0
     21275 TIP3     4233     TIP3     H2       HT       0.417000       1.00800           0
     21276 TIP3     4234     TIP3     OH2      OT      -0.834000       15.9994           0
     21277 TIP3     4234     TIP3     H1       HT       0.417000       1.00800           0
     21278 TIP3     4234     TIP3     H2       HT       0.417000       1.00800           0
     21279 TIP3     4235     TIP3     OH2      OT      -0.834000       15.9994           0
     21280 TIP3     4235     TIP3     H1       HT       0.417000       1.00800           0
     21281 TIP3     4235     TIP3     H2       HT       0.417000       1.00800           0
     21282 TIP3     4236     TIP3     OH2      OT      -0.834000       15.9994           0
     21283 TIP3     4236     TIP3     H1       HT       0.417000       1.00800           0
     21284 TIP3     4236     TIP3     H2       HT       0.417000       1.00800           0
     21285 TIP3     4237     TIP3     OH2      OT      -0.834000       15.9994           0
     21286 TIP3     4237     TIP3     H1       HT       0.417000       1.00800           0
     21287 TIP3     4237     TIP3     H2       HT       0.417000       1.00800           0
     21288 TIP3     4238     TIP3     OH2      OT      -0.834000       15.9994           0
     21289 TIP3     4238     TIP3     H1       HT       0.417000       1.00800           0
     21290 TIP3     4238     TIP3     H2       HT       0.417000       1.00800           0
     21291 TIP3     4239     TIP3     OH2      OT      -0.834000       15.9994           0
     21292 TIP3     4239     TIP3     H1       HT       0.417000       1.00800           0
     21293 TIP3     4239     TIP3     H2       HT       0.417000       1.00800           0
     21294 TIP3     4240     TIP3     OH2      OT      -0.834000       15.9994           0
     21295 TIP3     4240     TIP3     H1       HT       0.417000       1.00800           0
     21296 TIP3     4240     TIP3     H2       HT       0.417000       1.00800           0
     21297 TIP3     4241     TIP3     OH2      OT      -0.834000       15.9994           0
     21298 TIP3     4241     TIP3     H1       HT       0.417000       1.00800           0
     21299 TIP3     4241     TIP3     H2       HT       0.417000       1.00800           0
     21300 TIP3     4242     TIP3     OH2      OT      -0.834000       15.9994           0
     21301 TIP3     4242     TIP3     H1       HT       0.417000       1.00800           0
     21302 TIP3     4242     TIP3     H2       HT       0.417000       1.00800           0
     21303 TIP3     4243     TIP3     OH2      OT      -0.834000       15.9994           0
     21304 TIP3     4243     TIP3     H1       HT       0.417000       1.00800           0
     21305 TIP3     4243     TIP3     H2       HT       0.417000       1.00800           0
     21306 TIP3     4244     TIP3     OH2      OT      -0.834000       15.9994           0
     21307 TIP3     4244     TIP3     H1       HT       0.417000       1.00800           0
     21308 TIP3     4244     TIP3     H2       HT       0.417000       1.00800           0
     21309 TIP3     4245     TIP3     OH2      OT      -0.834000       15.9994           0
     21310 TIP3     4245     TIP3     H1       HT       0.417000       1.00800           0
     21311 TIP3     4245     TIP3     H2       HT       0.417000       1.00800           0
     21312 TIP3     4246     TIP3     OH2      OT      -0.834000       15.9994           0
     21313 TIP3     4246     TIP3     H1       HT       0.417000       1.00800           0
     21314 TIP3     4246     TIP3     H2       HT       0.417000       1.00800           0
     21315 TIP3     4247     TIP3     OH2      OT      -0.834000       15.9994           0
     21316 TIP3     4247     TIP3     H1       HT       0.417000       1.00800           0
     21317 TIP3     4247     TIP3     H2       HT       0.417000       1.00800           0
     21318 TIP3     4248     TIP3     OH2      OT      -0.834000       15.9994           0
     21319 TIP3     4248     TIP3     H1       HT       0.417000       1.00800           0
     21320 TIP3     4248     TIP3     H2       HT       0.417000       1.00800           0
     21321 TIP3     4249     TIP3     OH2      OT      -0.834000       15.9994           0
     21322 TIP3     4249     TIP3     H1       HT       0.417000       1.00800           0
     21323 TIP3     4249     TIP3     H2       HT       0.417000       1.00800           0
     21324 TIP3     4250     TIP3     OH2      OT      -0.834000       15.9994           0
     21325 TIP3     4250     TIP3     H1       HT       0.417000       1.00800           0
     21326 TIP3     4250     TIP3     H2       HT       0.417000       1.00800           0
     21327 TIP3     4251     TIP3     OH2      OT      -0.834000       15.9994           0
     21328 TIP3     4251     TIP3     H1       HT       0.417000       1.00800           0
     21329 TIP3     4251     TIP3     H2       HT       0.417000       1.00800           0
     21330 TIP3     4252     TIP3     OH2      OT      -0.834000       15.9994           0
     21331 TIP3     4252     TIP3     H1       HT       0.417000       1.00800           0
     21332 TIP3     4252     TIP3     H2       HT       0.417000       1.00800           0
     21333 TIP3     4253     TIP3     OH2      OT      -0.834000       15.9994           0
     21334 TIP3     4253     TIP3     H1       HT       0.417000       1.00800           0
     21335 TIP3     4253     TIP3     H2       HT       0.417000       1.00800           0
     21336 TIP3     4254     TIP3     OH2      OT      -0.834000       15.9994           0
     21337 TIP3     4254     TIP3     H1       HT       0.417000       1.00800           0
     21338 TIP3     4254     TIP3     H2       HT       0.417000       1.00800           0
     21339 TIP3     4255     TIP3     OH2      OT      -0.834000       15.9994           0
     21340 TIP3     4255     TIP3     H1       HT       0.417000       1.00800           0
     21341 TIP3     4255     TIP3     H2       HT       0.417000       1.00800           0
     21342 TIP3     4256     TIP3     OH2      OT      -0.834000       15.9994           0
     21343 TIP3     4256     TIP3     H1       HT       0.417000       1.00800           0
     21344 TIP3     4256     TIP3     H2       HT       0.417000       1.00800           0
     21345 TIP3     4257     TIP3     OH2      OT      -0.834000       15.9994           0
     21346 TIP3     4257     TIP3     H1       HT       0.417000       1.00800           0
     21347 TIP3     4257     TIP3     H2       HT       0.417000       1.00800           0
     21348 TIP3     4258     TIP3     OH2      OT      -0.834000       15.9994           0
     21349 TIP3     4258     TIP3     H1       HT       0.417000       1.00800           0
     21350 TIP3     4258     TIP3     H2       HT       0.417000       1.00800           0
     21351 TIP3     4259     TIP3     OH2      OT      -0.834000       15.9994           0
     21352 TIP3     4259     TIP3     H1       HT       0.417000       1.00800           0
     21353 TIP3     4259     TIP3     H2       HT       0.417000       1.00800           0
     21354 TIP3     4260     TIP3     OH2      OT      -0.834000       15.9994           0
     21355 TIP3     4260     TIP3     H1       HT       0.417000       1.00800           0
     21356 TIP3     4260     TIP3     H2       HT       0.417000       1.00800           0
     21357 TIP3     4261     TIP3     OH2      OT      -0.834000       15.9994           0
     21358 TIP3     4261     TIP3     H1       HT       0.417000       1.00800           0
     21359 TIP3     4261     TIP3     H2       HT       0.417000       1.00800           0
     21360 TIP3     4262     TIP3     OH2      OT      -0.834000       15.9994           0
     21361 TIP3     4262     TIP3     H1       HT       0.417000       1.00800           0
     21362 TIP3     4262     TIP3     H2       HT       0.417000       1.00800           0
     21363 TIP3     4263     TIP3     OH2      OT      -0.834000       15.9994           0
     21364 TIP3     4263     TIP3     H1       HT       0.417000       1.00800           0
     21365 TIP3     4263     TIP3     H2       HT       0.417000       1.00800           0
     21366 TIP3     4264     TIP3     OH2      OT      -0.834000       15.9994           0
     21367 TIP3     4264     TIP3     H1       HT       0.417000       1.00800           0
     21368 TIP3     4264     TIP3     H2       HT       0.417000       1.00800           0
     21369 TIP3     4265     TIP3     OH2      OT      -0.834000       15.9994           0
     21370 TIP3     4265     TIP3     H1       HT       0.417000       1.00800           0
     21371 TIP3     4265     TIP3     H2       HT       0.417000       1.00800           0
     21372 TIP3     4266     TIP3     OH2      OT      -0.834000       15.9994           0
     21373 TIP3     4266     TIP3     H1       HT       0.417000       1.00800           0
     21374 TIP3     4266     TIP3     H2       HT       0.417000       1.00800           0
     21375 TIP3     4267     TIP3     OH2      OT      -0.834000       15.9994           0
     21376 TIP3     4267     TIP3     H1       HT       0.417000       1.00800           0
     21377 TIP3     4267     TIP3     H2       HT       0.417000       1.00800           0
     21378 TIP3     4268     TIP3     OH2      OT      -0.834000       15.9994           0
     21379 TIP3     4268     TIP3     H1       HT       0.417000       1.00800           0
     21380 TIP3     4268     TIP3     H2       HT       0.417000       1.00800           0
     21381 TIP3     4269     TIP3     OH2      OT      -0.834000       15.9994           0
     21382 TIP3     4269     TIP3     H1       HT       0.417000       1.00800           0
     21383 TIP3     4269     TIP3     H2       HT       0.417000       1.00800           0
     21384 TIP3     4270     TIP3     OH2      OT      -0.834000       15.9994           0
     21385 TIP3     4270     TIP3     H1       HT       0.417000       1.00800           0
     21386 TIP3     4270     TIP3     H2       HT       0.417000       1.00800           0
     21387 TIP3     4271     TIP3     OH2      OT      -0.834000       15.9994           0
     21388 TIP3     4271     TIP3     H1       HT       0.417000       1.00800           0
     21389 TIP3     4271     TIP3     H2       HT       0.417000       1.00800           0
     21390 TIP3     4272     TIP3     OH2      OT      -0.834000       15.9994           0
     21391 TIP3     4272     TIP3     H1       HT       0.417000       1.00800           0
     21392 TIP3     4272     TIP3     H2       HT       0.417000       1.00800           0
     21393 TIP3     4273     TIP3     OH2      OT      -0.834000       15.9994           0
     21394 TIP3     4273     TIP3     H1       HT       0.417000       1.00800           0
     21395 TIP3     4273     TIP3     H2       HT       0.417000       1.00800           0
     21396 TIP3     4274     TIP3     OH2      OT      -0.834000       15.9994           0
     21397 TIP3     4274     TIP3     H1       HT       0.417000       1.00800           0
     21398 TIP3     4274     TIP3     H2       HT       0.417000       1.00800           0
     21399 TIP3     4275     TIP3     OH2      OT      -0.834000       15.9994           0
     21400 TIP3     4275     TIP3     H1       HT       0.417000       1.00800           0
     21401 TIP3     4275     TIP3     H2       HT       0.417000       1.00800           0
     21402 TIP3     4276     TIP3     OH2      OT      -0.834000       15.9994           0
     21403 TIP3     4276     TIP3     H1       HT       0.417000       1.00800           0
     21404 TIP3     4276     TIP3     H2       HT       0.417000       1.00800           0
     21405 TIP3     4277     TIP3     OH2      OT      -0.834000       15.9994           0
     21406 TIP3     4277     TIP3     H1       HT       0.417000       1.00800           0
     21407 TIP3     4277     TIP3     H2       HT       0.417000       1.00800           0
     21408 TIP3     4278     TIP3     OH2      OT      -0.834000       15.9994           0
     21409 TIP3     4278     TIP3     H1       HT       0.417000       1.00800           0
     21410 TIP3     4278     TIP3     H2       HT       0.417000       1.00800           0
     21411 TIP3     4279     TIP3     OH2      OT      -0.834000       15.9994           0
     21412 TIP3     4279     TIP3     H1       HT       0.417000       1.00800           0
     21413 TIP3     4279     TIP3     H2       HT       0.417000       1.00800           0
     21414 TIP3     4280     TIP3     OH2      OT      -0.834000       15.9994           0
     21415 TIP3     4280     TIP3     H1       HT       0.417000       1.00800           0
     21416 TIP3     4280     TIP3     H2       HT       0.417000       1.00800           0
     21417 TIP3     4281     TIP3     OH2      OT      -0.834000       15.9994           0
     21418 TIP3     4281     TIP3     H1       HT       0.417000       1.00800           0
     21419 TIP3     4281     TIP3     H2       HT       0.417000       1.00800           0
     21420 TIP3     4282     TIP3     OH2      OT      -0.834000       15.9994           0
     21421 TIP3     4282     TIP3     H1       HT       0.417000       1.00800           0
     21422 TIP3     4282     TIP3     H2       HT       0.417000       1.00800           0
     21423 TIP3     4283     TIP3     OH2      OT      -0.834000       15.9994           0
     21424 TIP3     4283     TIP3     H1       HT       0.417000       1.00800           0
     21425 TIP3     4283     TIP3     H2       HT       0.417000       1.00800           0
     21426 TIP3     4284     TIP3     OH2      OT      -0.834000       15.9994           0
     21427 TIP3     4284     TIP3     H1       HT       0.417000       1.00800           0
     21428 TIP3     4284     TIP3     H2       HT       0.417000       1.00800           0
     21429 TIP3     4285     TIP3     OH2      OT      -0.834000       15.9994           0
     21430 TIP3     4285     TIP3     H1       HT       0.417000       1.00800           0
     21431 TIP3     4285     TIP3     H2       HT       0.417000       1.00800           0
     21432 TIP3     4286     TIP3     OH2      OT      -0.834000       15.9994           0
     21433 TIP3     4286     TIP3     H1       HT       0.417000       1.00800           0
     21434 TIP3     4286     TIP3     H2       HT       0.417000       1.00800           0
     21435 TIP3     4287     TIP3     OH2      OT      -0.834000       15.9994           0
     21436 TIP3     4287     TIP3     H1       HT       0.417000       1.00800           0
     21437 TIP3     4287     TIP3     H2       HT       0.417000       1.00800           0
     21438 TIP3     4288     TIP3     OH2      OT      -0.834000       15.9994           0
     21439 TIP3     4288     TIP3     H1       HT       0.417000       1.00800           0
     21440 TIP3     4288     TIP3     H2       HT       0.417000       1.00800           0
     21441 TIP3     4289     TIP3     OH2      OT      -0.834000       15.9994           0
     21442 TIP3     4289     TIP3     H1       HT       0.417000       1.00800           0
     21443 TIP3     4289     TIP3     H2       HT       0.417000       1.00800           0
     21444 TIP3     4290     TIP3     OH2      OT      -0.834000       15.9994           0
     21445 TIP3     4290     TIP3     H1       HT       0.417000       1.00800           0
     21446 TIP3     4290     TIP3     H2       HT       0.417000       1.00800           0
     21447 TIP3     4291     TIP3     OH2      OT      -0.834000       15.9994           0
     21448 TIP3     4291     TIP3     H1       HT       0.417000       1.00800           0
     21449 TIP3     4291     TIP3     H2       HT       0.417000       1.00800           0
     21450 TIP3     4292     TIP3     OH2      OT      -0.834000       15.9994           0
     21451 TIP3     4292     TIP3     H1       HT       0.417000       1.00800           0
     21452 TIP3     4292     TIP3     H2       HT       0.417000       1.00800           0
     21453 TIP3     4293     TIP3     OH2      OT      -0.834000       15.9994           0
     21454 TIP3     4293     TIP3     H1       HT       0.417000       1.00800           0
     21455 TIP3     4293     TIP3     H2       HT       0.417000       1.00800           0
     21456 TIP3     4294     TIP3     OH2      OT      -0.834000       15.9994           0
     21457 TIP3     4294     TIP3     H1       HT       0.417000       1.00800           0
     21458 TIP3     4294     TIP3     H2       HT       0.417000       1.00800           0
     21459 TIP3     4295     TIP3     OH2      OT      -0.834000       15.9994           0
     21460 TIP3     4295     TIP3     H1       HT       0.417000       1.00800           0
     21461 TIP3     4295     TIP3     H2       HT       0.417000       1.00800           0
     21462 TIP3     4296     TIP3     OH2      OT      -0.834000       15.9994           0
     21463 TIP3     4296     TIP3     H1       HT       0.417000       1.00800           0
     21464 TIP3     4296     TIP3     H2       HT       0.417000       1.00800           0
     21465 TIP3     4297     TIP3     OH2      OT      -0.834000       15.9994           0
     21466 TIP3     4297     TIP3     H1       HT       0.417000       1.00800           0
     21467 TIP3     4297     TIP3     H2       HT       0.417000       1.00800           0
     21468 TIP3     4298     TIP3     OH2      OT      -0.834000       15.9994           0
     21469 TIP3     4298     TIP3     H1       HT       0.417000       1.00800           0
     21470 TIP3     4298     TIP3     H2       HT       0.417000       1.00800           0
     21471 TIP3     4299     TIP3     OH2      OT      -0.834000       15.9994           0
     21472 TIP3     4299     TIP3     H1       HT       0.417000       1.00800           0
     21473 TIP3     4299     TIP3     H2       HT       0.417000       1.00800           0
     21474 TIP3     4300     TIP3     OH2      OT      -0.834000       15.9994           0
     21475 TIP3     4300     TIP3     H1       HT       0.417000       1.00800           0
     21476 TIP3     4300     TIP3     H2       HT       0.417000       1.00800           0
     21477 TIP3     4301     TIP3     OH2      OT      -0.834000       15.9994           0
     21478 TIP3     4301     TIP3     H1       HT       0.417000       1.00800           0
     21479 TIP3     4301     TIP3     H2       HT       0.417000       1.00800           0
     21480 TIP3     4302     TIP3     OH2      OT      -0.834000       15.9994           0
     21481 TIP3     4302     TIP3     H1       HT       0.417000       1.00800           0
     21482 TIP3     4302     TIP3     H2       HT       0.417000       1.00800           0
     21483 TIP3     4303     TIP3     OH2      OT      -0.834000       15.9994           0
     21484 TIP3     4303     TIP3     H1       HT       0.417000       1.00800           0
     21485 TIP3     4303     TIP3     H2       HT       0.417000       1.00800           0
     21486 TIP3     4304     TIP3     OH2      OT      -0.834000       15.9994           0
     21487 TIP3     4304     TIP3     H1       HT       0.417000       1.00800           0
     21488 TIP3     4304     TIP3     H2       HT       0.417000       1.00800           0
     21489 TIP3     4305     TIP3     OH2      OT      -0.834000       15.9994           0
     21490 TIP3     4305     TIP3     H1       HT       0.417000       1.00800           0
     21491 TIP3     4305     TIP3     H2       HT       0.417000       1.00800           0
     21492 TIP3     4306     TIP3     OH2      OT      -0.834000       15.9994           0
     21493 TIP3     4306     TIP3     H1       HT       0.417000       1.00800           0
     21494 TIP3     4306     TIP3     H2       HT       0.417000       1.00800           0
     21495 TIP3     4307     TIP3     OH2      OT      -0.834000       15.9994           0
     21496 TIP3     4307     TIP3     H1       HT       0.417000       1.00800           0
     21497 TIP3     4307     TIP3     H2       HT       0.417000       1.00800           0
     21498 TIP3     4308     TIP3     OH2      OT      -0.834000       15.9994           0
     21499 TIP3     4308     TIP3     H1       HT       0.417000       1.00800           0
     21500 TIP3     4308     TIP3     H2       HT       0.417000       1.00800           0
     21501 TIP3     4309     TIP3     OH2      OT      -0.834000       15.9994           0
     21502 TIP3     4309     TIP3     H1       HT       0.417000       1.00800           0
     21503 TIP3     4309     TIP3     H2       HT       0.417000       1.00800           0
     21504 TIP3     4310     TIP3     OH2      OT      -0.834000       15.9994           0
     21505 TIP3     4310     TIP3     H1       HT       0.417000       1.00800           0
     21506 TIP3     4310     TIP3     H2       HT       0.417000       1.00800           0
     21507 TIP3     4311     TIP3     OH2      OT      -0.834000       15.9994           0
     21508 TIP3     4311     TIP3     H1       HT       0.417000       1.00800           0
     21509 TIP3     4311     TIP3     H2       HT       0.417000       1.00800           0
     21510 TIP3     4312     TIP3     OH2      OT      -0.834000       15.9994           0
     21511 TIP3     4312     TIP3     H1       HT       0.417000       1.00800           0
     21512 TIP3     4312     TIP3     H2       HT       0.417000       1.00800           0
     21513 TIP3     4313     TIP3     OH2      OT      -0.834000       15.9994           0
     21514 TIP3     4313     TIP3     H1       HT       0.417000       1.00800           0
     21515 TIP3     4313     TIP3     H2       HT       0.417000       1.00800           0
     21516 TIP3     4314     TIP3     OH2      OT      -0.834000       15.9994           0
     21517 TIP3     4314     TIP3     H1       HT       0.417000       1.00800           0
     21518 TIP3     4314     TIP3     H2       HT       0.417000       1.00800           0
     21519 TIP3     4315     TIP3     OH2      OT      -0.834000       15.9994           0
     21520 TIP3     4315     TIP3     H1       HT       0.417000       1.00800           0
     21521 TIP3     4315     TIP3     H2       HT       0.417000       1.00800           0
     21522 TIP3     4316     TIP3     OH2      OT      -0.834000       15.9994           0
     21523 TIP3     4316     TIP3     H1       HT       0.417000       1.00800           0
     21524 TIP3     4316     TIP3     H2       HT       0.417000       1.00800           0
     21525 TIP3     4317     TIP3     OH2      OT      -0.834000       15.9994           0
     21526 TIP3     4317     TIP3     H1       HT       0.417000       1.00800           0
     21527 TIP3     4317     TIP3     H2       HT       0.417000       1.00800           0
     21528 TIP3     4318     TIP3     OH2      OT      -0.834000       15.9994           0
     21529 TIP3     4318     TIP3     H1       HT       0.417000       1.00800           0
     21530 TIP3     4318     TIP3     H2       HT       0.417000       1.00800           0
     21531 TIP3     4319     TIP3     OH2      OT      -0.834000       15.9994           0
     21532 TIP3     4319     TIP3     H1       HT       0.417000       1.00800           0
     21533 TIP3     4319     TIP3     H2       HT       0.417000       1.00800           0
     21534 TIP3     4320     TIP3     OH2      OT      -0.834000       15.9994           0
     21535 TIP3     4320     TIP3     H1       HT       0.417000       1.00800           0
     21536 TIP3     4320     TIP3     H2       HT       0.417000       1.00800           0
     21537 TIP3     4321     TIP3     OH2      OT      -0.834000       15.9994           0
     21538 TIP3     4321     TIP3     H1       HT       0.417000       1.00800           0
     21539 TIP3     4321     TIP3     H2       HT       0.417000       1.00800           0
     21540 TIP3     4322     TIP3     OH2      OT      -0.834000       15.9994           0
     21541 TIP3     4322     TIP3     H1       HT       0.417000       1.00800           0
     21542 TIP3     4322     TIP3     H2       HT       0.417000       1.00800           0
     21543 TIP3     4323     TIP3     OH2      OT      -0.834000       15.9994           0
     21544 TIP3     4323     TIP3     H1       HT       0.417000       1.00800           0
     21545 TIP3     4323     TIP3     H2       HT       0.417000       1.00800           0
     21546 TIP3     4324     TIP3     OH2      OT      -0.834000       15.9994           0
     21547 TIP3     4324     TIP3     H1       HT       0.417000       1.00800           0
     21548 TIP3     4324     TIP3     H2       HT       0.417000       1.00800           0
     21549 TIP3     4325     TIP3     OH2      OT      -0.834000       15.9994           0
     21550 TIP3     4325     TIP3     H1       HT       0.417000       1.00800           0
     21551 TIP3     4325     TIP3     H2       HT       0.417000       1.00800           0
     21552 TIP3     4326     TIP3     OH2      OT      -0.834000       15.9994           0
     21553 TIP3     4326     TIP3     H1       HT       0.417000       1.00800           0
     21554 TIP3     4326     TIP3     H2       HT       0.417000       1.00800           0
     21555 TIP3     4327     TIP3     OH2      OT      -0.834000       15.9994           0
     21556 TIP3     4327     TIP3     H1       HT       0.417000       1.00800           0
     21557 TIP3     4327     TIP3     H2       HT       0.417000       1.00800           0
     21558 TIP3     4328     TIP3     OH2      OT      -0.834000       15.9994           0
     21559 TIP3     4328     TIP3     H1       HT       0.417000       1.00800           0
     21560 TIP3     4328     TIP3     H2       HT       0.417000       1.00800           0
     21561 TIP3     4329     TIP3     OH2      OT      -0.834000       15.9994           0
     21562 TIP3     4329     TIP3     H1       HT       0.417000       1.00800           0
     21563 TIP3     4329     TIP3     H2       HT       0.417000       1.00800           0
     21564 TIP3     4330     TIP3     OH2      OT      -0.834000       15.9994           0
     21565 TIP3     4330     TIP3     H1       HT       0.417000       1.00800           0
     21566 TIP3     4330     TIP3     H2       HT       0.417000       1.00800           0
     21567 TIP3     4331     TIP3     OH2      OT      -0.834000       15.9994           0
     21568 TIP3     4331     TIP3     H1       HT       0.417000       1.00800           0
     21569 TIP3     4331     TIP3     H2       HT       0.417000       1.00800           0
     21570 TIP3     4332     TIP3     OH2      OT      -0.834000       15.9994           0
     21571 TIP3     4332     TIP3     H1       HT       0.417000       1.00800           0
     21572 TIP3     4332     TIP3     H2       HT       0.417000       1.00800           0
     21573 TIP3     4333     TIP3     OH2      OT      -0.834000       15.9994           0
     21574 TIP3     4333     TIP3     H1       HT       0.417000       1.00800           0
     21575 TIP3     4333     TIP3     H2       HT       0.417000       1.00800           0
     21576 TIP3     4334     TIP3     OH2      OT      -0.834000       15.9994           0
     21577 TIP3     4334     TIP3     H1       HT       0.417000       1.00800           0
     21578 TIP3     4334     TIP3     H2       HT       0.417000       1.00800           0
     21579 TIP3     4335     TIP3     OH2      OT      -0.834000       15.9994           0
     21580 TIP3     4335     TIP3     H1       HT       0.417000       1.00800           0
     21581 TIP3     4335     TIP3     H2       HT       0.417000       1.00800           0
     21582 TIP3     4336     TIP3     OH2      OT      -0.834000       15.9994           0
     21583 TIP3     4336     TIP3     H1       HT       0.417000       1.00800           0
     21584 TIP3     4336     TIP3     H2       HT       0.417000       1.00800           0
     21585 TIP3     4337     TIP3     OH2      OT      -0.834000       15.9994           0
     21586 TIP3     4337     TIP3     H1       HT       0.417000       1.00800           0
     21587 TIP3     4337     TIP3     H2       HT       0.417000       1.00800           0
     21588 TIP3     4338     TIP3     OH2      OT      -0.834000       15.9994           0
     21589 TIP3     4338     TIP3     H1       HT       0.417000       1.00800           0
     21590 TIP3     4338     TIP3     H2       HT       0.417000       1.00800           0
     21591 TIP3     4339     TIP3     OH2      OT      -0.834000       15.9994           0
     21592 TIP3     4339     TIP3     H1       HT       0.417000       1.00800           0
     21593 TIP3     4339     TIP3     H2       HT       0.417000       1.00800           0
     21594 TIP3     4340     TIP3     OH2      OT      -0.834000       15.9994           0
     21595 TIP3     4340     TIP3     H1       HT       0.417000       1.00800           0
     21596 TIP3     4340     TIP3     H2       HT       0.417000       1.00800           0
     21597 TIP3     4341     TIP3     OH2      OT      -0.834000       15.9994           0
     21598 TIP3     4341     TIP3     H1       HT       0.417000       1.00800           0
     21599 TIP3     4341     TIP3     H2       HT       0.417000       1.00800           0
     21600 TIP3     4342     TIP3     OH2      OT      -0.834000       15.9994           0
     21601 TIP3     4342     TIP3     H1       HT       0.417000       1.00800           0
     21602 TIP3     4342     TIP3     H2       HT       0.417000       1.00800           0
     21603 TIP3     4343     TIP3     OH2      OT      -0.834000       15.9994           0
     21604 TIP3     4343     TIP3     H1       HT       0.417000       1.00800           0
     21605 TIP3     4343     TIP3     H2       HT       0.417000       1.00800           0
     21606 TIP3     4344     TIP3     OH2      OT      -0.834000       15.9994           0
     21607 TIP3     4344     TIP3     H1       HT       0.417000       1.00800           0
     21608 TIP3     4344     TIP3     H2       HT       0.417000       1.00800           0
     21609 TIP3     4345     TIP3     OH2      OT      -0.834000       15.9994           0
     21610 TIP3     4345     TIP3     H1       HT       0.417000       1.00800           0
     21611 TIP3     4345     TIP3     H2       HT       0.417000       1.00800           0
     21612 TIP3     4346     TIP3     OH2      OT      -0.834000       15.9994           0
     21613 TIP3     4346     TIP3     H1       HT       0.417000       1.00800           0
     21614 TIP3     4346     TIP3     H2       HT       0.417000       1.00800           0
     21615 TIP3     4347     TIP3     OH2      OT      -0.834000       15.9994           0
     21616 TIP3     4347     TIP3     H1       HT       0.417000       1.00800           0
     21617 TIP3     4347     TIP3     H2       HT       0.417000       1.00800           0
     21618 TIP3     4348     TIP3     OH2      OT      -0.834000       15.9994           0
     21619 TIP3     4348     TIP3     H1       HT       0.417000       1.00800           0
     21620 TIP3     4348     TIP3     H2       HT       0.417000       1.00800           0
     21621 TIP3     4349     TIP3     OH2      OT      -0.834000       15.9994           0
     21622 TIP3     4349     TIP3     H1       HT       0.417000       1.00800           0
     21623 TIP3     4349     TIP3     H2       HT       0.417000       1.00800           0
     21624 TIP3     4350     TIP3     OH2      OT      -0.834000       15.9994           0
     21625 TIP3     4350     TIP3     H1       HT       0.417000       1.00800           0
     21626 TIP3     4350     TIP3     H2       HT       0.417000       1.00800           0
     21627 TIP3     4351     TIP3     OH2      OT      -0.834000       15.9994           0
     21628 TIP3     4351     TIP3     H1       HT       0.417000       1.00800           0
     21629 TIP3     4351     TIP3     H2       HT       0.417000       1.00800           0
     21630 TIP3     4352     TIP3     OH2      OT      -0.834000       15.9994           0
     21631 TIP3     4352     TIP3     H1       HT       0.417000       1.00800           0
     21632 TIP3     4352     TIP3     H2       HT       0.417000       1.00800           0
     21633 TIP3     4353     TIP3     OH2      OT      -0.834000       15.9994           0
     21634 TIP3     4353     TIP3     H1       HT       0.417000       1.00800           0
     21635 TIP3     4353     TIP3     H2       HT       0.417000       1.00800           0
     21636 TIP3     4354     TIP3     OH2      OT      -0.834000       15.9994           0
     21637 TIP3     4354     TIP3     H1       HT       0.417000       1.00800           0
     21638 TIP3     4354     TIP3     H2       HT       0.417000       1.00800           0
     21639 TIP3     4355     TIP3     OH2      OT      -0.834000       15.9994           0
     21640 TIP3     4355     TIP3     H1       HT       0.417000       1.00800           0
     21641 TIP3     4355     TIP3     H2       HT       0.417000       1.00800           0
     21642 TIP3     4356     TIP3     OH2      OT      -0.834000       15.9994           0
     21643 TIP3     4356     TIP3     H1       HT       0.417000       1.00800           0
     21644 TIP3     4356     TIP3     H2       HT       0.417000       1.00800           0
     21645 TIP3     4357     TIP3     OH2      OT      -0.834000       15.9994           0
     21646 TIP3     4357     TIP3     H1       HT       0.417000       1.00800           0
     21647 TIP3     4357     TIP3     H2       HT       0.417000       1.00800           0
     21648 TIP3     4358     TIP3     OH2      OT      -0.834000       15.9994           0
     21649 TIP3     4358     TIP3     H1       HT       0.417000       1.00800           0
     21650 TIP3     4358     TIP3     H2       HT       0.417000       1.00800           0
     21651 TIP3     4359     TIP3     OH2      OT      -0.834000       15.9994           0
     21652 TIP3     4359     TIP3     H1       HT       0.417000       1.00800           0
     21653 TIP3     4359     TIP3     H2       HT       0.417000       1.00800           0
     21654 TIP3     4360     TIP3     OH2      OT      -0.834000       15.9994           0
     21655 TIP3     4360     TIP3     H1       HT       0.417000       1.00800           0
     21656 TIP3     4360     TIP3     H2       HT       0.417000       1.00800           0
     21657 TIP3     4361     TIP3     OH2      OT      -0.834000       15.9994           0
     21658 TIP3     4361     TIP3     H1       HT       0.417000       1.00800           0
     21659 TIP3     4361     TIP3     H2       HT       0.417000       1.00800           0
     21660 TIP3     4362     TIP3     OH2      OT      -0.834000       15.9994           0
     21661 TIP3     4362     TIP3     H1       HT       0.417000       1.00800           0
     21662 TIP3     4362     TIP3     H2       HT       0.417000       1.00800           0
     21663 TIP3     4363     TIP3     OH2      OT      -0.834000       15.9994           0
     21664 TIP3     4363     TIP3     H1       HT       0.417000       1.00800           0
     21665 TIP3     4363     TIP3     H2       HT       0.417000       1.00800           0
     21666 TIP3     4364     TIP3     OH2      OT      -0.834000       15.9994           0
     21667 TIP3     4364     TIP3     H1       HT       0.417000       1.00800           0
     21668 TIP3     4364     TIP3     H2       HT       0.417000       1.00800           0
     21669 TIP3     4365     TIP3     OH2      OT      -0.834000       15.9994           0
     21670 TIP3     4365     TIP3     H1       HT       0.417000       1.00800           0
     21671 TIP3     4365     TIP3     H2       HT       0.417000       1.00800           0
     21672 TIP3     4366     TIP3     OH2      OT      -0.834000       15.9994           0
     21673 TIP3     4366     TIP3     H1       HT       0.417000       1.00800           0
     21674 TIP3     4366     TIP3     H2       HT       0.417000       1.00800           0
     21675 TIP3     4367     TIP3     OH2      OT      -0.834000       15.9994           0
     21676 TIP3     4367     TIP3     H1       HT       0.417000       1.00800           0
     21677 TIP3     4367     TIP3     H2       HT       0.417000       1.00800           0
     21678 TIP3     4368     TIP3     OH2      OT      -0.834000       15.9994           0
     21679 TIP3     4368     TIP3     H1       HT       0.417000       1.00800           0
     21680 TIP3     4368     TIP3     H2       HT       0.417000       1.00800           0
     21681 TIP3     4369     TIP3     OH2      OT      -0.834000       15.9994           0
     21682 TIP3     4369     TIP3     H1       HT       0.417000       1.00800           0
     21683 TIP3     4369     TIP3     H2       HT       0.417000       1.00800           0
     21684 TIP3     4370     TIP3     OH2      OT      -0.834000       15.9994           0
     21685 TIP3     4370     TIP3     H1       HT       0.417000       1.00800           0
     21686 TIP3     4370     TIP3     H2       HT       0.417000       1.00800           0
     21687 TIP3     4371     TIP3     OH2      OT      -0.834000       15.9994           0
     21688 TIP3     4371     TIP3     H1       HT       0.417000       1.00800           0
     21689 TIP3     4371     TIP3     H2       HT       0.417000       1.00800           0
     21690 TIP3     4372     TIP3     OH2      OT      -0.834000       15.9994           0
     21691 TIP3     4372     TIP3     H1       HT       0.417000       1.00800           0
     21692 TIP3     4372     TIP3     H2       HT       0.417000       1.00800           0
     21693 TIP3     4373     TIP3     OH2      OT      -0.834000       15.9994           0
     21694 TIP3     4373     TIP3     H1       HT       0.417000       1.00800           0
     21695 TIP3     4373     TIP3     H2       HT       0.417000       1.00800           0
     21696 TIP3     4374     TIP3     OH2      OT      -0.834000       15.9994           0
     21697 TIP3     4374     TIP3     H1       HT       0.417000       1.00800           0
     21698 TIP3     4374     TIP3     H2       HT       0.417000       1.00800           0
     21699 TIP3     4375     TIP3     OH2      OT      -0.834000       15.9994           0
     21700 TIP3     4375     TIP3     H1       HT       0.417000       1.00800           0
     21701 TIP3     4375     TIP3     H2       HT       0.417000       1.00800           0
     21702 TIP3     4376     TIP3     OH2      OT      -0.834000       15.9994           0
     21703 TIP3     4376     TIP3     H1       HT       0.417000       1.00800           0
     21704 TIP3     4376     TIP3     H2       HT       0.417000       1.00800           0
     21705 TIP3     4377     TIP3     OH2      OT      -0.834000       15.9994           0
     21706 TIP3     4377     TIP3     H1       HT       0.417000       1.00800           0
     21707 TIP3     4377     TIP3     H2       HT       0.417000       1.00800           0
     21708 TIP3     4378     TIP3     OH2      OT      -0.834000       15.9994           0
     21709 TIP3     4378     TIP3     H1       HT       0.417000       1.00800           0
     21710 TIP3     4378     TIP3     H2       HT       0.417000       1.00800           0
     21711 TIP3     4379     TIP3     OH2      OT      -0.834000       15.9994           0
     21712 TIP3     4379     TIP3     H1       HT       0.417000       1.00800           0
     21713 TIP3     4379     TIP3     H2       HT       0.417000       1.00800           0
     21714 TIP3     4380     TIP3     OH2      OT      -0.834000       15.9994           0
     21715 TIP3     4380     TIP3     H1       HT       0.417000       1.00800           0
     21716 TIP3     4380     TIP3     H2       HT       0.417000       1.00800           0
     21717 TIP3     4381     TIP3     OH2      OT      -0.834000       15.9994           0
     21718 TIP3     4381     TIP3     H1       HT       0.417000       1.00800           0
     21719 TIP3     4381     TIP3     H2       HT       0.417000       1.00800           0
     21720 TIP3     4382     TIP3     OH2      OT      -0.834000       15.9994           0
     21721 TIP3     4382     TIP3     H1       HT       0.417000       1.00800           0
     21722 TIP3     4382     TIP3     H2       HT       0.417000       1.00800           0
     21723 TIP3     4383     TIP3     OH2      OT      -0.834000       15.9994           0
     21724 TIP3     4383     TIP3     H1       HT       0.417000       1.00800           0
     21725 TIP3     4383     TIP3     H2       HT       0.417000       1.00800           0
     21726 TIP3     4384     TIP3     OH2      OT      -0.834000       15.9994           0
     21727 TIP3     4384     TIP3     H1       HT       0.417000       1.00800           0
     21728 TIP3     4384     TIP3     H2       HT       0.417000       1.00800           0
     21729 TIP3     4385     TIP3     OH2      OT      -0.834000       15.9994           0
     21730 TIP3     4385     TIP3     H1       HT       0.417000       1.00800           0
     21731 TIP3     4385     TIP3     H2       HT       0.417000       1.00800           0
     21732 TIP3     4386     TIP3     OH2      OT      -0.834000       15.9994           0
     21733 TIP3     4386     TIP3     H1       HT       0.417000       1.00800           0
     21734 TIP3     4386     TIP3     H2       HT       0.417000       1.00800           0
     21735 TIP3     4387     TIP3     OH2      OT      -0.834000       15.9994           0
     21736 TIP3     4387     TIP3     H1       HT       0.417000       1.00800           0
     21737 TIP3     4387     TIP3     H2       HT       0.417000       1.00800           0
     21738 TIP3     4388     TIP3     OH2      OT      -0.834000       15.9994           0
     21739 TIP3     4388     TIP3     H1       HT       0.417000       1.00800           0
     21740 TIP3     4388     TIP3     H2       HT       0.417000       1.00800           0
     21741 TIP3     4389     TIP3     OH2      OT      -0.834000       15.9994           0
     21742 TIP3     4389     TIP3     H1       HT       0.417000       1.00800           0
     21743 TIP3     4389     TIP3     H2       HT       0.417000       1.00800           0
     21744 TIP3     4390     TIP3     OH2      OT      -0.834000       15.9994           0
     21745 TIP3     4390     TIP3     H1       HT       0.417000       1.00800           0
     21746 TIP3     4390     TIP3     H2       HT       0.417000       1.00800           0
     21747 TIP3     4391     TIP3     OH2      OT      -0.834000       15.9994           0
     21748 TIP3     4391     TIP3     H1       HT       0.417000       1.00800           0
     21749 TIP3     4391     TIP3     H2       HT       0.417000       1.00800           0
     21750 TIP3     4392     TIP3     OH2      OT      -0.834000       15.9994           0
     21751 TIP3     4392     TIP3     H1       HT       0.417000       1.00800           0
     21752 TIP3     4392     TIP3     H2       HT       0.417000       1.00800           0
     21753 TIP3     4393     TIP3     OH2      OT      -0.834000       15.9994           0
     21754 TIP3     4393     TIP3     H1       HT       0.417000       1.00800           0
     21755 TIP3     4393     TIP3     H2       HT       0.417000       1.00800           0
     21756 TIP3     4394     TIP3     OH2      OT      -0.834000       15.9994           0
     21757 TIP3     4394     TIP3     H1       HT       0.417000       1.00800           0
     21758 TIP3     4394     TIP3     H2       HT       0.417000       1.00800           0
     21759 TIP3     4395     TIP3     OH2      OT      -0.834000       15.9994           0
     21760 TIP3     4395     TIP3     H1       HT       0.417000       1.00800           0
     21761 TIP3     4395     TIP3     H2       HT       0.417000       1.00800           0
     21762 TIP3     4396     TIP3     OH2      OT      -0.834000       15.9994           0
     21763 TIP3     4396     TIP3     H1       HT       0.417000       1.00800           0
     21764 TIP3     4396     TIP3     H2       HT       0.417000       1.00800           0
     21765 TIP3     4397     TIP3     OH2      OT      -0.834000       15.9994           0
     21766 TIP3     4397     TIP3     H1       HT       0.417000       1.00800           0
     21767 TIP3     4397     TIP3     H2       HT       0.417000       1.00800           0
     21768 TIP3     4398     TIP3     OH2      OT      -0.834000       15.9994           0
     21769 TIP3     4398     TIP3     H1       HT       0.417000       1.00800           0
     21770 TIP3     4398     TIP3     H2       HT       0.417000       1.00800           0
     21771 TIP3     4399     TIP3     OH2      OT      -0.834000       15.9994           0
     21772 TIP3     4399     TIP3     H1       HT       0.417000       1.00800           0
     21773 TIP3     4399     TIP3     H2       HT       0.417000       1.00800           0
     21774 TIP3     4400     TIP3     OH2      OT      -0.834000       15.9994           0
     21775 TIP3     4400     TIP3     H1       HT       0.417000       1.00800           0
     21776 TIP3     4400     TIP3     H2       HT       0.417000       1.00800           0
     21777 TIP3     4401     TIP3     OH2      OT      -0.834000       15.9994           0
     21778 TIP3     4401     TIP3     H1       HT       0.417000       1.00800           0
     21779 TIP3     4401     TIP3     H2       HT       0.417000       1.00800           0
     21780 TIP3     4402     TIP3     OH2      OT      -0.834000       15.9994           0
     21781 TIP3     4402     TIP3     H1       HT       0.417000       1.00800           0
     21782 TIP3     4402     TIP3     H2       HT       0.417000       1.00800           0
     21783 TIP3     4403     TIP3     OH2      OT      -0.834000       15.9994           0
     21784 TIP3     4403     TIP3     H1       HT       0.417000       1.00800           0
     21785 TIP3     4403     TIP3     H2       HT       0.417000       1.00800           0
     21786 TIP3     4404     TIP3     OH2      OT      -0.834000       15.9994           0
     21787 TIP3     4404     TIP3     H1       HT       0.417000       1.00800           0
     21788 TIP3     4404     TIP3     H2       HT       0.417000       1.00800           0
     21789 TIP3     4405     TIP3     OH2      OT      -0.834000       15.9994           0
     21790 TIP3     4405     TIP3     H1       HT       0.417000       1.00800           0
     21791 TIP3     4405     TIP3     H2       HT       0.417000       1.00800           0
     21792 TIP3     4406     TIP3     OH2      OT      -0.834000       15.9994           0
     21793 TIP3     4406     TIP3     H1       HT       0.417000       1.00800           0
     21794 TIP3     4406     TIP3     H2       HT       0.417000       1.00800           0
     21795 TIP3     4407     TIP3     OH2      OT      -0.834000       15.9994           0
     21796 TIP3     4407     TIP3     H1       HT       0.417000       1.00800           0
     21797 TIP3     4407     TIP3     H2       HT       0.417000       1.00800           0
     21798 TIP3     4408     TIP3     OH2      OT      -0.834000       15.9994           0
     21799 TIP3     4408     TIP3     H1       HT       0.417000       1.00800           0
     21800 TIP3     4408     TIP3     H2       HT       0.417000       1.00800           0
     21801 TIP3     4409     TIP3     OH2      OT      -0.834000       15.9994           0
     21802 TIP3     4409     TIP3     H1       HT       0.417000       1.00800           0
     21803 TIP3     4409     TIP3     H2       HT       0.417000       1.00800           0
     21804 TIP3     4410     TIP3     OH2      OT      -0.834000       15.9994           0
     21805 TIP3     4410     TIP3     H1       HT       0.417000       1.00800           0
     21806 TIP3     4410     TIP3     H2       HT       0.417000       1.00800           0
     21807 TIP3     4411     TIP3     OH2      OT      -0.834000       15.9994           0
     21808 TIP3     4411     TIP3     H1       HT       0.417000       1.00800           0
     21809 TIP3     4411     TIP3     H2       HT       0.417000       1.00800           0
     21810 TIP3     4412     TIP3     OH2      OT      -0.834000       15.9994           0
     21811 TIP3     4412     TIP3     H1       HT       0.417000       1.00800           0
     21812 TIP3     4412     TIP3     H2       HT       0.417000       1.00800           0
     21813 TIP3     4413     TIP3     OH2      OT      -0.834000       15.9994           0
     21814 TIP3     4413     TIP3     H1       HT       0.417000       1.00800           0
     21815 TIP3     4413     TIP3     H2       HT       0.417000       1.00800           0
     21816 TIP3     4414     TIP3     OH2      OT      -0.834000       15.9994           0
     21817 TIP3     4414     TIP3     H1       HT       0.417000       1.00800           0
     21818 TIP3     4414     TIP3     H2       HT       0.417000       1.00800           0
     21819 TIP3     4415     TIP3     OH2      OT      -0.834000       15.9994           0
     21820 TIP3     4415     TIP3     H1       HT       0.417000       1.00800           0
     21821 TIP3     4415     TIP3     H2       HT       0.417000       1.00800           0
     21822 TIP3     4416     TIP3     OH2      OT      -0.834000       15.9994           0
     21823 TIP3     4416     TIP3     H1       HT       0.417000       1.00800           0
     21824 TIP3     4416     TIP3     H2       HT       0.417000       1.00800           0
     21825 TIP3     4417     TIP3     OH2      OT      -0.834000       15.9994           0
     21826 TIP3     4417     TIP3     H1       HT       0.417000       1.00800           0
     21827 TIP3     4417     TIP3     H2       HT       0.417000       1.00800           0
     21828 TIP3     4418     TIP3     OH2      OT      -0.834000       15.9994           0
     21829 TIP3     4418     TIP3     H1       HT       0.417000       1.00800           0
     21830 TIP3     4418     TIP3     H2       HT       0.417000       1.00800           0
     21831 TIP3     4419     TIP3     OH2      OT      -0.834000       15.9994           0
     21832 TIP3     4419     TIP3     H1       HT       0.417000       1.00800           0
     21833 TIP3     4419     TIP3     H2       HT       0.417000       1.00800           0
     21834 TIP3     4420     TIP3     OH2      OT      -0.834000       15.9994           0
     21835 TIP3     4420     TIP3     H1       HT       0.417000       1.00800           0
     21836 TIP3     4420     TIP3     H2       HT       0.417000       1.00800           0
     21837 TIP3     4421     TIP3     OH2      OT      -0.834000       15.9994           0
     21838 TIP3     4421     TIP3     H1       HT       0.417000       1.00800           0
     21839 TIP3     4421     TIP3     H2       HT       0.417000       1.00800           0
     21840 TIP3     4422     TIP3     OH2      OT      -0.834000       15.9994           0
     21841 TIP3     4422     TIP3     H1       HT       0.417000       1.00800           0
     21842 TIP3     4422     TIP3     H2       HT       0.417000       1.00800           0
     21843 TIP3     4423     TIP3     OH2      OT      -0.834000       15.9994           0
     21844 TIP3     4423     TIP3     H1       HT       0.417000       1.00800           0
     21845 TIP3     4423     TIP3     H2       HT       0.417000       1.00800           0
     21846 TIP3     4424     TIP3     OH2      OT      -0.834000       15.9994           0
     21847 TIP3     4424     TIP3     H1       HT       0.417000       1.00800           0
     21848 TIP3     4424     TIP3     H2       HT       0.417000       1.00800           0
     21849 TIP3     4425     TIP3     OH2      OT      -0.834000       15.9994           0
     21850 TIP3     4425     TIP3     H1       HT       0.417000       1.00800           0
     21851 TIP3     4425     TIP3     H2       HT       0.417000       1.00800           0
     21852 TIP3     4426     TIP3     OH2      OT      -0.834000       15.9994           0
     21853 TIP3     4426     TIP3     H1       HT       0.417000       1.00800           0
     21854 TIP3     4426     TIP3     H2       HT       0.417000       1.00800           0
     21855 TIP3     4427     TIP3     OH2      OT      -0.834000       15.9994           0
     21856 TIP3     4427     TIP3     H1       HT       0.417000       1.00800           0
     21857 TIP3     4427     TIP3     H2       HT       0.417000       1.00800           0
     21858 TIP3     4428     TIP3     OH2      OT      -0.834000       15.9994           0
     21859 TIP3     4428     TIP3     H1       HT       0.417000       1.00800           0
     21860 TIP3     4428     TIP3     H2       HT       0.417000       1.00800           0
     21861 TIP3     4429     TIP3     OH2      OT      -0.834000       15.9994           0
     21862 TIP3     4429     TIP3     H1       HT       0.417000       1.00800           0
     21863 TIP3     4429     TIP3     H2       HT       0.417000       1.00800           0
     21864 TIP3     4430     TIP3     OH2      OT      -0.834000       15.9994           0
     21865 TIP3     4430     TIP3     H1       HT       0.417000       1.00800           0
     21866 TIP3     4430     TIP3     H2       HT       0.417000       1.00800           0
     21867 TIP3     4431     TIP3     OH2      OT      -0.834000       15.9994           0
     21868 TIP3     4431     TIP3     H1       HT       0.417000       1.00800           0
     21869 TIP3     4431     TIP3     H2       HT       0.417000       1.00800           0
     21870 TIP3     4432     TIP3     OH2      OT      -0.834000       15.9994           0
     21871 TIP3     4432     TIP3     H1       HT       0.417000       1.00800           0
     21872 TIP3     4432     TIP3     H2       HT       0.417000       1.00800           0
     21873 TIP3     4433     TIP3     OH2      OT      -0.834000       15.9994           0
     21874 TIP3     4433     TIP3     H1       HT       0.417000       1.00800           0
     21875 TIP3     4433     TIP3     H2       HT       0.417000       1.00800           0
     21876 TIP3     4434     TIP3     OH2      OT      -0.834000       15.9994           0
     21877 TIP3     4434     TIP3     H1       HT       0.417000       1.00800           0
     21878 TIP3     4434     TIP3     H2       HT       0.417000       1.00800           0
     21879 TIP3     4435     TIP3     OH2      OT      -0.834000       15.9994           0
     21880 TIP3     4435     TIP3     H1       HT       0.417000       1.00800           0
     21881 TIP3     4435     TIP3     H2       HT       0.417000       1.00800           0
     21882 TIP3     4436     TIP3     OH2      OT      -0.834000       15.9994           0
     21883 TIP3     4436     TIP3     H1       HT       0.417000       1.00800           0
     21884 TIP3     4436     TIP3     H2       HT       0.417000       1.00800           0
     21885 TIP3     4437     TIP3     OH2      OT      -0.834000       15.9994           0
     21886 TIP3     4437     TIP3     H1       HT       0.417000       1.00800           0
     21887 TIP3     4437     TIP3     H2       HT       0.417000       1.00800           0
     21888 TIP3     4438     TIP3     OH2      OT      -0.834000       15.9994           0
     21889 TIP3     4438     TIP3     H1       HT       0.417000       1.00800           0
     21890 TIP3     4438     TIP3     H2       HT       0.417000       1.00800           0
     21891 TIP3     4439     TIP3     OH2      OT      -0.834000       15.9994           0
     21892 TIP3     4439     TIP3     H1       HT       0.417000       1.00800           0
     21893 TIP3     4439     TIP3     H2       HT       0.417000       1.00800           0
     21894 TIP3     4440     TIP3     OH2      OT      -0.834000       15.9994           0
     21895 TIP3     4440     TIP3     H1       HT       0.417000       1.00800           0
     21896 TIP3     4440     TIP3     H2       HT       0.417000       1.00800           0
     21897 TIP3     4441     TIP3     OH2      OT      -0.834000       15.9994           0
     21898 TIP3     4441     TIP3     H1       HT       0.417000       1.00800           0
     21899 TIP3     4441     TIP3     H2       HT       0.417000       1.00800           0
     21900 TIP3     4442     TIP3     OH2      OT      -0.834000       15.9994           0
     21901 TIP3     4442     TIP3     H1       HT       0.417000       1.00800           0
     21902 TIP3     4442     TIP3     H2       HT       0.417000       1.00800           0
     21903 TIP3     4443     TIP3     OH2      OT      -0.834000       15.9994           0
     21904 TIP3     4443     TIP3     H1       HT       0.417000       1.00800           0
     21905 TIP3     4443     TIP3     H2       HT       0.417000       1.00800           0
     21906 TIP3     4444     TIP3     OH2      OT      -0.834000       15.9994           0
     21907 TIP3     4444     TIP3     H1       HT       0.417000       1.00800           0
     21908 TIP3     4444     TIP3     H2       HT       0.417000       1.00800           0
     21909 TIP3     4445     TIP3     OH2      OT      -0.834000       15.9994           0
     21910 TIP3     4445     TIP3     H1       HT       0.417000       1.00800           0
     21911 TIP3     4445     TIP3     H2       HT       0.417000       1.00800           0
     21912 TIP3     4446     TIP3     OH2      OT      -0.834000       15.9994           0
     21913 TIP3     4446     TIP3     H1       HT       0.417000       1.00800           0
     21914 TIP3     4446     TIP3     H2       HT       0.417000       1.00800           0
     21915 TIP3     4447     TIP3     OH2      OT      -0.834000       15.9994           0
     21916 TIP3     4447     TIP3     H1       HT       0.417000       1.00800           0
     21917 TIP3     4447     TIP3     H2       HT       0.417000       1.00800           0
     21918 TIP3     4448     TIP3     OH2      OT      -0.834000       15.9994           0
     21919 TIP3     4448     TIP3     H1       HT       0.417000       1.00800           0
     21920 TIP3     4448     TIP3     H2       HT       0.417000       1.00800           0
     21921 TIP3     4449     TIP3     OH2      OT      -0.834000       15.9994           0
     21922 TIP3     4449     TIP3     H1       HT       0.417000       1.00800           0
     21923 TIP3     4449     TIP3     H2       HT       0.417000       1.00800           0
     21924 TIP3     4450     TIP3     OH2      OT      -0.834000       15.9994           0
     21925 TIP3     4450     TIP3     H1       HT       0.417000       1.00800           0
     21926 TIP3     4450     TIP3     H2       HT       0.417000       1.00800           0
     21927 TIP3     4451     TIP3     OH2      OT      -0.834000       15.9994           0
     21928 TIP3     4451     TIP3     H1       HT       0.417000       1.00800           0
     21929 TIP3     4451     TIP3     H2       HT       0.417000       1.00800           0
     21930 TIP3     4452     TIP3     OH2      OT      -0.834000       15.9994           0
     21931 TIP3     4452     TIP3     H1       HT       0.417000       1.00800           0
     21932 TIP3     4452     TIP3     H2       HT       0.417000       1.00800           0
     21933 TIP3     4453     TIP3     OH2      OT      -0.834000       15.9994           0
     21934 TIP3     4453     TIP3     H1       HT       0.417000       1.00800           0
     21935 TIP3     4453     TIP3     H2       HT       0.417000       1.00800           0
     21936 TIP3     4454     TIP3     OH2      OT      -0.834000       15.9994           0
     21937 TIP3     4454     TIP3     H1       HT       0.417000       1.00800           0
     21938 TIP3     4454     TIP3     H2       HT       0.417000       1.00800           0
     21939 TIP3     4455     TIP3     OH2      OT      -0.834000       15.9994           0
     21940 TIP3     4455     TIP3     H1       HT       0.417000       1.00800           0
     21941 TIP3     4455     TIP3     H2       HT       0.417000       1.00800           0
     21942 TIP3     4456     TIP3     OH2      OT      -0.834000       15.9994           0
     21943 TIP3     4456     TIP3     H1       HT       0.417000       1.00800           0
     21944 TIP3     4456     TIP3     H2       HT       0.417000       1.00800           0
     21945 TIP3     4457     TIP3     OH2      OT      -0.834000       15.9994           0
     21946 TIP3     4457     TIP3     H1       HT       0.417000       1.00800           0
     21947 TIP3     4457     TIP3     H2       HT       0.417000       1.00800           0
     21948 TIP3     4458     TIP3     OH2      OT      -0.834000       15.9994           0
     21949 TIP3     4458     TIP3     H1       HT       0.417000       1.00800           0
     21950 TIP3     4458     TIP3     H2       HT       0.417000       1.00800           0
     21951 TIP3     4459     TIP3     OH2      OT      -0.834000       15.9994           0
     21952 TIP3     4459     TIP3     H1       HT       0.417000       1.00800           0
     21953 TIP3     4459     TIP3     H2       HT       0.417000       1.00800           0
     21954 TIP3     4460     TIP3     OH2      OT      -0.834000       15.9994           0
     21955 TIP3     4460     TIP3     H1       HT       0.417000       1.00800           0
     21956 TIP3     4460     TIP3     H2       HT       0.417000       1.00800           0
     21957 TIP3     4461     TIP3     OH2      OT      -0.834000       15.9994           0
     21958 TIP3     4461     TIP3     H1       HT       0.417000       1.00800           0
     21959 TIP3     4461     TIP3     H2       HT       0.417000       1.00800           0
     21960 TIP3     4462     TIP3     OH2      OT      -0.834000       15.9994           0
     21961 TIP3     4462     TIP3     H1       HT       0.417000       1.00800           0
     21962 TIP3     4462     TIP3     H2       HT       0.417000       1.00800           0
     21963 TIP3     4463     TIP3     OH2      OT      -0.834000       15.9994           0
     21964 TIP3     4463     TIP3     H1       HT       0.417000       1.00800           0
     21965 TIP3     4463     TIP3     H2       HT       0.417000       1.00800           0
     21966 TIP3     4464     TIP3     OH2      OT      -0.834000       15.9994           0
     21967 TIP3     4464     TIP3     H1       HT       0.417000       1.00800           0
     21968 TIP3     4464     TIP3     H2       HT       0.417000       1.00800           0
     21969 TIP3     4465     TIP3     OH2      OT      -0.834000       15.9994           0
     21970 TIP3     4465     TIP3     H1       HT       0.417000       1.00800           0
     21971 TIP3     4465     TIP3     H2       HT       0.417000       1.00800           0
     21972 TIP3     4466     TIP3     OH2      OT      -0.834000       15.9994           0
     21973 TIP3     4466     TIP3     H1       HT       0.417000       1.00800           0
     21974 TIP3     4466     TIP3     H2       HT       0.417000       1.00800           0
     21975 TIP3     4467     TIP3     OH2      OT      -0.834000       15.9994           0
     21976 TIP3     4467     TIP3     H1       HT       0.417000       1.00800           0
     21977 TIP3     4467     TIP3     H2       HT       0.417000       1.00800           0
     21978 TIP3     4468     TIP3     OH2      OT      -0.834000       15.9994           0
     21979 TIP3     4468     TIP3     H1       HT       0.417000       1.00800           0
     21980 TIP3     4468     TIP3     H2       HT       0.417000       1.00800           0
     21981 TIP3     4469     TIP3     OH2      OT      -0.834000       15.9994           0
     21982 TIP3     4469     TIP3     H1       HT       0.417000       1.00800           0
     21983 TIP3     4469     TIP3     H2       HT       0.417000       1.00800           0
     21984 TIP3     4470     TIP3     OH2      OT      -0.834000       15.9994           0
     21985 TIP3     4470     TIP3     H1       HT       0.417000       1.00800           0
     21986 TIP3     4470     TIP3     H2       HT       0.417000       1.00800           0
     21987 TIP3     4471     TIP3     OH2      OT      -0.834000       15.9994           0
     21988 TIP3     4471     TIP3     H1       HT       0.417000       1.00800           0
     21989 TIP3     4471     TIP3     H2       HT       0.417000       1.00800           0
     21990 TIP3     4472     TIP3     OH2      OT      -0.834000       15.9994           0
     21991 TIP3     4472     TIP3     H1       HT       0.417000       1.00800           0
     21992 TIP3     4472     TIP3     H2       HT       0.417000       1.00800           0
     21993 TIP3     4473     TIP3     OH2      OT      -0.834000       15.9994           0
     21994 TIP3     4473     TIP3     H1       HT       0.417000       1.00800           0
     21995 TIP3     4473     TIP3     H2       HT       0.417000       1.00800           0
     21996 TIP3     4474     TIP3     OH2      OT      -0.834000       15.9994           0
     21997 TIP3     4474     TIP3     H1       HT       0.417000       1.00800           0
     21998 TIP3     4474     TIP3     H2       HT       0.417000       1.00800           0
     21999 TIP3     4475     TIP3     OH2      OT      -0.834000       15.9994           0
     22000 TIP3     4475     TIP3     H1       HT       0.417000       1.00800           0
     22001 TIP3     4475     TIP3     H2       HT       0.417000       1.00800           0
     22002 TIP3     4476     TIP3     OH2      OT      -0.834000       15.9994           0
     22003 TIP3     4476     TIP3     H1       HT       0.417000       1.00800           0
     22004 TIP3     4476     TIP3     H2       HT       0.417000       1.00800           0
     22005 TIP3     4477     TIP3     OH2      OT      -0.834000       15.9994           0
     22006 TIP3     4477     TIP3     H1       HT       0.417000       1.00800           0
     22007 TIP3     4477     TIP3     H2       HT       0.417000       1.00800           0
     22008 TIP3     4478     TIP3     OH2      OT      -0.834000       15.9994           0
     22009 TIP3     4478     TIP3     H1       HT       0.417000       1.00800           0
     22010 TIP3     4478     TIP3     H2       HT       0.417000       1.00800           0
     22011 TIP3     4479     TIP3     OH2      OT      -0.834000       15.9994           0
     22012 TIP3     4479     TIP3     H1       HT       0.417000       1.00800           0
     22013 TIP3     4479     TIP3     H2       HT       0.417000       1.00800           0
     22014 TIP3     4480     TIP3     OH2      OT      -0.834000       15.9994           0
     22015 TIP3     4480     TIP3     H1       HT       0.417000       1.00800           0
     22016 TIP3     4480     TIP3     H2       HT       0.417000       1.00800           0
     22017 TIP3     4481     TIP3     OH2      OT      -0.834000       15.9994           0
     22018 TIP3     4481     TIP3     H1       HT       0.417000       1.00800           0
     22019 TIP3     4481     TIP3     H2       HT       0.417000       1.00800           0
     22020 TIP3     4482     TIP3     OH2      OT      -0.834000       15.9994           0
     22021 TIP3     4482     TIP3     H1       HT       0.417000       1.00800           0
     22022 TIP3     4482     TIP3     H2       HT       0.417000       1.00800           0
     22023 TIP3     4483     TIP3     OH2      OT      -0.834000       15.9994           0
     22024 TIP3     4483     TIP3     H1       HT       0.417000       1.00800           0
     22025 TIP3     4483     TIP3     H2       HT       0.417000       1.00800           0
     22026 TIP3     4484     TIP3     OH2      OT      -0.834000       15.9994           0
     22027 TIP3     4484     TIP3     H1       HT       0.417000       1.00800           0
     22028 TIP3     4484     TIP3     H2       HT       0.417000       1.00800           0
     22029 TIP3     4485     TIP3     OH2      OT      -0.834000       15.9994           0
     22030 TIP3     4485     TIP3     H1       HT       0.417000       1.00800           0
     22031 TIP3     4485     TIP3     H2       HT       0.417000       1.00800           0
     22032 TIP3     4486     TIP3     OH2      OT      -0.834000       15.9994           0
     22033 TIP3     4486     TIP3     H1       HT       0.417000       1.00800           0
     22034 TIP3     4486     TIP3     H2       HT       0.417000       1.00800           0
     22035 TIP3     4487     TIP3     OH2      OT      -0.834000       15.9994           0
     22036 TIP3     4487     TIP3     H1       HT       0.417000       1.00800           0
     22037 TIP3     4487     TIP3     H2       HT       0.417000       1.00800           0
     22038 TIP3     4488     TIP3     OH2      OT      -0.834000       15.9994           0
     22039 TIP3     4488     TIP3     H1       HT       0.417000       1.00800           0
     22040 TIP3     4488     TIP3     H2       HT       0.417000       1.00800           0
     22041 TIP3     4489     TIP3     OH2      OT      -0.834000       15.9994           0
     22042 TIP3     4489     TIP3     H1       HT       0.417000       1.00800           0
     22043 TIP3     4489     TIP3     H2       HT       0.417000       1.00800           0
     22044 TIP3     4490     TIP3     OH2      OT      -0.834000       15.9994           0
     22045 TIP3     4490     TIP3     H1       HT       0.417000       1.00800           0
     22046 TIP3     4490     TIP3     H2       HT       0.417000       1.00800           0
     22047 TIP3     4491     TIP3     OH2      OT      -0.834000       15.9994           0
     22048 TIP3     4491     TIP3     H1       HT       0.417000       1.00800           0
     22049 TIP3     4491     TIP3     H2       HT       0.417000       1.00800           0
     22050 TIP3     4492     TIP3     OH2      OT      -0.834000       15.9994           0
     22051 TIP3     4492     TIP3     H1       HT       0.417000       1.00800           0
     22052 TIP3     4492     TIP3     H2       HT       0.417000       1.00800           0
     22053 TIP3     4493     TIP3     OH2      OT      -0.834000       15.9994           0
     22054 TIP3     4493     TIP3     H1       HT       0.417000       1.00800           0
     22055 TIP3     4493     TIP3     H2       HT       0.417000       1.00800           0
     22056 TIP3     4494     TIP3     OH2      OT      -0.834000       15.9994           0
     22057 TIP3     4494     TIP3     H1       HT       0.417000       1.00800           0
     22058 TIP3     4494     TIP3     H2       HT       0.417000       1.00800           0
     22059 TIP3     4495     TIP3     OH2      OT      -0.834000       15.9994           0
     22060 TIP3     4495     TIP3     H1       HT       0.417000       1.00800           0
     22061 TIP3     4495     TIP3     H2       HT       0.417000       1.00800           0
     22062 TIP3     4496     TIP3     OH2      OT      -0.834000       15.9994           0
     22063 TIP3     4496     TIP3     H1       HT       0.417000       1.00800           0
     22064 TIP3     4496     TIP3     H2       HT       0.417000       1.00800           0
     22065 TIP3     4497     TIP3     OH2      OT      -0.834000       15.9994           0
     22066 TIP3     4497     TIP3     H1       HT       0.417000       1.00800           0
     22067 TIP3     4497     TIP3     H2       HT       0.417000       1.00800           0
     22068 TIP3     4498     TIP3     OH2      OT      -0.834000       15.9994           0
     22069 TIP3     4498     TIP3     H1       HT       0.417000       1.00800           0
     22070 TIP3     4498     TIP3     H2       HT       0.417000       1.00800           0
     22071 TIP3     4499     TIP3     OH2      OT      -0.834000       15.9994           0
     22072 TIP3     4499     TIP3     H1       HT       0.417000       1.00800           0
     22073 TIP3     4499     TIP3     H2       HT       0.417000       1.00800           0
     22074 TIP3     4500     TIP3     OH2      OT      -0.834000       15.9994           0
     22075 TIP3     4500     TIP3     H1       HT       0.417000       1.00800           0
     22076 TIP3     4500     TIP3     H2       HT       0.417000       1.00800           0
     22077 TIP3     4501     TIP3     OH2      OT      -0.834000       15.9994           0
     22078 TIP3     4501     TIP3     H1       HT       0.417000       1.00800           0
     22079 TIP3     4501     TIP3     H2       HT       0.417000       1.00800           0
     22080 TIP3     4502     TIP3     OH2      OT      -0.834000       15.9994           0
     22081 TIP3     4502     TIP3     H1       HT       0.417000       1.00800           0
     22082 TIP3     4502     TIP3     H2       HT       0.417000       1.00800           0
     22083 TIP3     4503     TIP3     OH2      OT      -0.834000       15.9994           0
     22084 TIP3     4503     TIP3     H1       HT       0.417000       1.00800           0
     22085 TIP3     4503     TIP3     H2       HT       0.417000       1.00800           0
     22086 TIP3     4504     TIP3     OH2      OT      -0.834000       15.9994           0
     22087 TIP3     4504     TIP3     H1       HT       0.417000       1.00800           0
     22088 TIP3     4504     TIP3     H2       HT       0.417000       1.00800           0
     22089 TIP3     4505     TIP3     OH2      OT      -0.834000       15.9994           0
     22090 TIP3     4505     TIP3     H1       HT       0.417000       1.00800           0
     22091 TIP3     4505     TIP3     H2       HT       0.417000       1.00800           0
     22092 TIP3     4506     TIP3     OH2      OT      -0.834000       15.9994           0
     22093 TIP3     4506     TIP3     H1       HT       0.417000       1.00800           0
     22094 TIP3     4506     TIP3     H2       HT       0.417000       1.00800           0
     22095 TIP3     4507     TIP3     OH2      OT      -0.834000       15.9994           0
     22096 TIP3     4507     TIP3     H1       HT       0.417000       1.00800           0
     22097 TIP3     4507     TIP3     H2       HT       0.417000       1.00800           0
     22098 TIP3     4508     TIP3     OH2      OT      -0.834000       15.9994           0
     22099 TIP3     4508     TIP3     H1       HT       0.417000       1.00800           0
     22100 TIP3     4508     TIP3     H2       HT       0.417000       1.00800           0
     22101 TIP3     4509     TIP3     OH2      OT      -0.834000       15.9994           0
     22102 TIP3     4509     TIP3     H1       HT       0.417000       1.00800           0
     22103 TIP3     4509     TIP3     H2       HT       0.417000       1.00800           0
     22104 TIP3     4510     TIP3     OH2      OT      -0.834000       15.9994           0
     22105 TIP3     4510     TIP3     H1       HT       0.417000       1.00800           0
     22106 TIP3     4510     TIP3     H2       HT       0.417000       1.00800           0
     22107 TIP3     4511     TIP3     OH2      OT      -0.834000       15.9994           0
     22108 TIP3     4511     TIP3     H1       HT       0.417000       1.00800           0
     22109 TIP3     4511     TIP3     H2       HT       0.417000       1.00800           0
     22110 TIP3     4512     TIP3     OH2      OT      -0.834000       15.9994           0
     22111 TIP3     4512     TIP3     H1       HT       0.417000       1.00800           0
     22112 TIP3     4512     TIP3     H2       HT       0.417000       1.00800           0
     22113 TIP3     4513     TIP3     OH2      OT      -0.834000       15.9994           0
     22114 TIP3     4513     TIP3     H1       HT       0.417000       1.00800           0
     22115 TIP3     4513     TIP3     H2       HT       0.417000       1.00800           0
     22116 TIP3     4514     TIP3     OH2      OT      -0.834000       15.9994           0
     22117 TIP3     4514     TIP3     H1       HT       0.417000       1.00800           0
     22118 TIP3     4514     TIP3     H2       HT       0.417000       1.00800           0
     22119 TIP3     4515     TIP3     OH2      OT      -0.834000       15.9994           0
     22120 TIP3     4515     TIP3     H1       HT       0.417000       1.00800           0
     22121 TIP3     4515     TIP3     H2       HT       0.417000       1.00800           0
     22122 TIP3     4516     TIP3     OH2      OT      -0.834000       15.9994           0
     22123 TIP3     4516     TIP3     H1       HT       0.417000       1.00800           0
     22124 TIP3     4516     TIP3     H2       HT       0.417000       1.00800           0
     22125 TIP3     4517     TIP3     OH2      OT      -0.834000       15.9994           0
     22126 TIP3     4517     TIP3     H1       HT       0.417000       1.00800           0
     22127 TIP3     4517     TIP3     H2       HT       0.417000       1.00800           0
     22128 TIP3     4518     TIP3     OH2      OT      -0.834000       15.9994           0
     22129 TIP3     4518     TIP3     H1       HT       0.417000       1.00800           0
     22130 TIP3     4518     TIP3     H2       HT       0.417000       1.00800           0
     22131 TIP3     4519     TIP3     OH2      OT      -0.834000       15.9994           0
     22132 TIP3     4519     TIP3     H1       HT       0.417000       1.00800           0
     22133 TIP3     4519     TIP3     H2       HT       0.417000       1.00800           0
     22134 TIP3     4520     TIP3     OH2      OT      -0.834000       15.9994           0
     22135 TIP3     4520     TIP3     H1       HT       0.417000       1.00800           0
     22136 TIP3     4520     TIP3     H2       HT       0.417000       1.00800           0
     22137 TIP3     4521     TIP3     OH2      OT      -0.834000       15.9994           0
     22138 TIP3     4521     TIP3     H1       HT       0.417000       1.00800           0
     22139 TIP3     4521     TIP3     H2       HT       0.417000       1.00800           0
     22140 TIP3     4522     TIP3     OH2      OT      -0.834000       15.9994           0
     22141 TIP3     4522     TIP3     H1       HT       0.417000       1.00800           0
     22142 TIP3     4522     TIP3     H2       HT       0.417000       1.00800           0
     22143 TIP3     4523     TIP3     OH2      OT      -0.834000       15.9994           0
     22144 TIP3     4523     TIP3     H1       HT       0.417000       1.00800           0
     22145 TIP3     4523     TIP3     H2       HT       0.417000       1.00800           0
     22146 TIP3     4524     TIP3     OH2      OT      -0.834000       15.9994           0
     22147 TIP3     4524     TIP3     H1       HT       0.417000       1.00800           0
     22148 TIP3     4524     TIP3     H2       HT       0.417000       1.00800           0
     22149 TIP3     4525     TIP3     OH2      OT      -0.834000       15.9994           0
     22150 TIP3     4525     TIP3     H1       HT       0.417000       1.00800           0
     22151 TIP3     4525     TIP3     H2       HT       0.417000       1.00800           0
     22152 TIP3     4526     TIP3     OH2      OT      -0.834000       15.9994           0
     22153 TIP3     4526     TIP3     H1       HT       0.417000       1.00800           0
     22154 TIP3     4526     TIP3     H2       HT       0.417000       1.00800           0
     22155 TIP3     4527     TIP3     OH2      OT      -0.834000       15.9994           0
     22156 TIP3     4527     TIP3     H1       HT       0.417000       1.00800           0
     22157 TIP3     4527     TIP3     H2       HT       0.417000       1.00800           0
     22158 TIP3     4528     TIP3     OH2      OT      -0.834000       15.9994           0
     22159 TIP3     4528     TIP3     H1       HT       0.417000       1.00800           0
     22160 TIP3     4528     TIP3     H2       HT       0.417000       1.00800           0
     22161 TIP3     4529     TIP3     OH2      OT      -0.834000       15.9994           0
     22162 TIP3     4529     TIP3     H1       HT       0.417000       1.00800           0
     22163 TIP3     4529     TIP3     H2       HT       0.417000       1.00800           0
     22164 TIP3     4530     TIP3     OH2      OT      -0.834000       15.9994           0
     22165 TIP3     4530     TIP3     H1       HT       0.417000       1.00800           0
     22166 TIP3     4530     TIP3     H2       HT       0.417000       1.00800           0
     22167 TIP3     4531     TIP3     OH2      OT      -0.834000       15.9994           0
     22168 TIP3     4531     TIP3     H1       HT       0.417000       1.00800           0
     22169 TIP3     4531     TIP3     H2       HT       0.417000       1.00800           0
     22170 TIP3     4532     TIP3     OH2      OT      -0.834000       15.9994           0
     22171 TIP3     4532     TIP3     H1       HT       0.417000       1.00800           0
     22172 TIP3     4532     TIP3     H2       HT       0.417000       1.00800           0
     22173 TIP3     4533     TIP3     OH2      OT      -0.834000       15.9994           0
     22174 TIP3     4533     TIP3     H1       HT       0.417000       1.00800           0
     22175 TIP3     4533     TIP3     H2       HT       0.417000       1.00800           0
     22176 TIP3     4534     TIP3     OH2      OT      -0.834000       15.9994           0
     22177 TIP3     4534     TIP3     H1       HT       0.417000       1.00800           0
     22178 TIP3     4534     TIP3     H2       HT       0.417000       1.00800           0
     22179 TIP3     4535     TIP3     OH2      OT      -0.834000       15.9994           0
     22180 TIP3     4535     TIP3     H1       HT       0.417000       1.00800           0
     22181 TIP3     4535     TIP3     H2       HT       0.417000       1.00800           0
     22182 TIP3     4536     TIP3     OH2      OT      -0.834000       15.9994           0
     22183 TIP3     4536     TIP3     H1       HT       0.417000       1.00800           0
     22184 TIP3     4536     TIP3     H2       HT       0.417000       1.00800           0
     22185 TIP3     4537     TIP3     OH2      OT      -0.834000       15.9994           0
     22186 TIP3     4537     TIP3     H1       HT       0.417000       1.00800           0
     22187 TIP3     4537     TIP3     H2       HT       0.417000       1.00800           0
     22188 TIP3     4538     TIP3     OH2      OT      -0.834000       15.9994           0
     22189 TIP3     4538     TIP3     H1       HT       0.417000       1.00800           0
     22190 TIP3     4538     TIP3     H2       HT       0.417000       1.00800           0
     22191 TIP3     4539     TIP3     OH2      OT      -0.834000       15.9994           0
     22192 TIP3     4539     TIP3     H1       HT       0.417000       1.00800           0
     22193 TIP3     4539     TIP3     H2       HT       0.417000       1.00800           0
     22194 TIP3     4540     TIP3     OH2      OT      -0.834000       15.9994           0
     22195 TIP3     4540     TIP3     H1       HT       0.417000       1.00800           0
     22196 TIP3     4540     TIP3     H2       HT       0.417000       1.00800           0
     22197 TIP3     4541     TIP3     OH2      OT      -0.834000       15.9994           0
     22198 TIP3     4541     TIP3     H1       HT       0.417000       1.00800           0
     22199 TIP3     4541     TIP3     H2       HT       0.417000       1.00800           0
     22200 TIP3     4542     TIP3     OH2      OT      -0.834000       15.9994           0
     22201 TIP3     4542     TIP3     H1       HT       0.417000       1.00800           0
     22202 TIP3     4542     TIP3     H2       HT       0.417000       1.00800           0
     22203 TIP3     4543     TIP3     OH2      OT      -0.834000       15.9994           0
     22204 TIP3     4543     TIP3     H1       HT       0.417000       1.00800           0
     22205 TIP3     4543     TIP3     H2       HT       0.417000       1.00800           0
     22206 TIP3     4544     TIP3     OH2      OT      -0.834000       15.9994           0
     22207 TIP3     4544     TIP3     H1       HT       0.417000       1.00800           0
     22208 TIP3     4544     TIP3     H2       HT       0.417000       1.00800           0
     22209 TIP3     4545     TIP3     OH2      OT      -0.834000       15.9994           0
     22210 TIP3     4545     TIP3     H1       HT       0.417000       1.00800           0
     22211 TIP3     4545     TIP3     H2       HT       0.417000       1.00800           0
     22212 TIP3     4546     TIP3     OH2      OT      -0.834000       15.9994           0
     22213 TIP3     4546     TIP3     H1       HT       0.417000       1.00800           0
     22214 TIP3     4546     TIP3     H2       HT       0.417000       1.00800           0
     22215 TIP3     4547     TIP3     OH2      OT      -0.834000       15.9994           0
     22216 TIP3     4547     TIP3     H1       HT       0.417000       1.00800           0
     22217 TIP3     4547     TIP3     H2       HT       0.417000       1.00800           0
     22218 TIP3     4548     TIP3     OH2      OT      -0.834000       15.9994           0
     22219 TIP3     4548     TIP3     H1       HT       0.417000       1.00800           0
     22220 TIP3     4548     TIP3     H2       HT       0.417000       1.00800           0
     22221 TIP3     4549     TIP3     OH2      OT      -0.834000       15.9994           0
     22222 TIP3     4549     TIP3     H1       HT       0.417000       1.00800           0
     22223 TIP3     4549     TIP3     H2       HT       0.417000       1.00800           0
     22224 TIP3     4550     TIP3     OH2      OT      -0.834000       15.9994           0
     22225 TIP3     4550     TIP3     H1       HT       0.417000       1.00800           0
     22226 TIP3     4550     TIP3     H2       HT       0.417000       1.00800           0
     22227 TIP3     4551     TIP3     OH2      OT      -0.834000       15.9994           0
     22228 TIP3     4551     TIP3     H1       HT       0.417000       1.00800           0
     22229 TIP3     4551     TIP3     H2       HT       0.417000       1.00800           0
     22230 TIP3     4552     TIP3     OH2      OT      -0.834000       15.9994           0
     22231 TIP3     4552     TIP3     H1       HT       0.417000       1.00800           0
     22232 TIP3     4552     TIP3     H2       HT       0.417000       1.00800           0
     22233 TIP3     4553     TIP3     OH2      OT      -0.834000       15.9994           0
     22234 TIP3     4553     TIP3     H1       HT       0.417000       1.00800           0
     22235 TIP3     4553     TIP3     H2       HT       0.417000       1.00800           0
     22236 TIP3     4554     TIP3     OH2      OT      -0.834000       15.9994           0
     22237 TIP3     4554     TIP3     H1       HT       0.417000       1.00800           0
     22238 TIP3     4554     TIP3     H2       HT       0.417000       1.00800           0
     22239 TIP3     4555     TIP3     OH2      OT      -0.834000       15.9994           0
     22240 TIP3     4555     TIP3     H1       HT       0.417000       1.00800           0
     22241 TIP3     4555     TIP3     H2       HT       0.417000       1.00800           0
     22242 TIP3     4556     TIP3     OH2      OT      -0.834000       15.9994           0
     22243 TIP3     4556     TIP3     H1       HT       0.417000       1.00800           0
     22244 TIP3     4556     TIP3     H2       HT       0.417000       1.00800           0
     22245 TIP3     4557     TIP3     OH2      OT      -0.834000       15.9994           0
     22246 TIP3     4557     TIP3     H1       HT       0.417000       1.00800           0
     22247 TIP3     4557     TIP3     H2       HT       0.417000       1.00800           0
     22248 TIP3     4558     TIP3     OH2      OT      -0.834000       15.9994           0
     22249 TIP3     4558     TIP3     H1       HT       0.417000       1.00800           0
     22250 TIP3     4558     TIP3     H2       HT       0.417000       1.00800           0
     22251 TIP3     4559     TIP3     OH2      OT      -0.834000       15.9994           0
     22252 TIP3     4559     TIP3     H1       HT       0.417000       1.00800           0
     22253 TIP3     4559     TIP3     H2       HT       0.417000       1.00800           0
     22254 TIP3     4560     TIP3     OH2      OT      -0.834000       15.9994           0
     22255 TIP3     4560     TIP3     H1       HT       0.417000       1.00800           0
     22256 TIP3     4560     TIP3     H2       HT       0.417000       1.00800           0
     22257 TIP3     4561     TIP3     OH2      OT      -0.834000       15.9994           0
     22258 TIP3     4561     TIP3     H1       HT       0.417000       1.00800           0
     22259 TIP3     4561     TIP3     H2       HT       0.417000       1.00800           0
     22260 TIP3     4562     TIP3     OH2      OT      -0.834000       15.9994           0
     22261 TIP3     4562     TIP3     H1       HT       0.417000       1.00800           0
     22262 TIP3     4562     TIP3     H2       HT       0.417000       1.00800           0
     22263 TIP3     4563     TIP3     OH2      OT      -0.834000       15.9994           0
     22264 TIP3     4563     TIP3     H1       HT       0.417000       1.00800           0
     22265 TIP3     4563     TIP3     H2       HT       0.417000       1.00800           0
     22266 TIP3     4564     TIP3     OH2      OT      -0.834000       15.9994           0
     22267 TIP3     4564     TIP3     H1       HT       0.417000       1.00800           0
     22268 TIP3     4564     TIP3     H2       HT       0.417000       1.00800           0
     22269 TIP3     4565     TIP3     OH2      OT      -0.834000       15.9994           0
     22270 TIP3     4565     TIP3     H1       HT       0.417000       1.00800           0
     22271 TIP3     4565     TIP3     H2       HT       0.417000       1.00800           0
     22272 TIP3     4566     TIP3     OH2      OT      -0.834000       15.9994           0
     22273 TIP3     4566     TIP3     H1       HT       0.417000       1.00800           0
     22274 TIP3     4566     TIP3     H2       HT       0.417000       1.00800           0
     22275 TIP3     4567     TIP3     OH2      OT      -0.834000       15.9994           0
     22276 TIP3     4567     TIP3     H1       HT       0.417000       1.00800           0
     22277 TIP3     4567     TIP3     H2       HT       0.417000       1.00800           0
     22278 TIP3     4568     TIP3     OH2      OT      -0.834000       15.9994           0
     22279 TIP3     4568     TIP3     H1       HT       0.417000       1.00800           0
     22280 TIP3     4568     TIP3     H2       HT       0.417000       1.00800           0
     22281 TIP3     4569     TIP3     OH2      OT      -0.834000       15.9994           0
     22282 TIP3     4569     TIP3     H1       HT       0.417000       1.00800           0
     22283 TIP3     4569     TIP3     H2       HT       0.417000       1.00800           0
     22284 TIP3     4570     TIP3     OH2      OT      -0.834000       15.9994           0
     22285 TIP3     4570     TIP3     H1       HT       0.417000       1.00800           0
     22286 TIP3     4570     TIP3     H2       HT       0.417000       1.00800           0
     22287 TIP3     4571     TIP3     OH2      OT      -0.834000       15.9994           0
     22288 TIP3     4571     TIP3     H1       HT       0.417000       1.00800           0
     22289 TIP3     4571     TIP3     H2       HT       0.417000       1.00800           0
     22290 TIP3     4572     TIP3     OH2      OT      -0.834000       15.9994           0
     22291 TIP3     4572     TIP3     H1       HT       0.417000       1.00800           0
     22292 TIP3     4572     TIP3     H2       HT       0.417000       1.00800           0
     22293 TIP3     4573     TIP3     OH2      OT      -0.834000       15.9994           0
     22294 TIP3     4573     TIP3     H1       HT       0.417000       1.00800           0
     22295 TIP3     4573     TIP3     H2       HT       0.417000       1.00800           0
     22296 TIP3     4574     TIP3     OH2      OT      -0.834000       15.9994           0
     22297 TIP3     4574     TIP3     H1       HT       0.417000       1.00800           0
     22298 TIP3     4574     TIP3     H2       HT       0.417000       1.00800           0
     22299 TIP3     4575     TIP3     OH2      OT      -0.834000       15.9994           0
     22300 TIP3     4575     TIP3     H1       HT       0.417000       1.00800           0
     22301 TIP3     4575     TIP3     H2       HT       0.417000       1.00800           0
     22302 TIP3     4576     TIP3     OH2      OT      -0.834000       15.9994           0
     22303 TIP3     4576     TIP3     H1       HT       0.417000       1.00800           0
     22304 TIP3     4576     TIP3     H2       HT       0.417000       1.00800           0
     22305 TIP3     4577     TIP3     OH2      OT      -0.834000       15.9994           0
     22306 TIP3     4577     TIP3     H1       HT       0.417000       1.00800           0
     22307 TIP3     4577     TIP3     H2       HT       0.417000       1.00800           0
     22308 TIP3     4578     TIP3     OH2      OT      -0.834000       15.9994           0
     22309 TIP3     4578     TIP3     H1       HT       0.417000       1.00800           0
     22310 TIP3     4578     TIP3     H2       HT       0.417000       1.00800           0
     22311 TIP3     4579     TIP3     OH2      OT      -0.834000       15.9994           0
     22312 TIP3     4579     TIP3     H1       HT       0.417000       1.00800           0
     22313 TIP3     4579     TIP3     H2       HT       0.417000       1.00800           0
     22314 TIP3     4580     TIP3     OH2      OT      -0.834000       15.9994           0
     22315 TIP3     4580     TIP3     H1       HT       0.417000       1.00800           0
     22316 TIP3     4580     TIP3     H2       HT       0.417000       1.00800           0
     22317 TIP3     4581     TIP3     OH2      OT      -0.834000       15.9994           0
     22318 TIP3     4581     TIP3     H1       HT       0.417000       1.00800           0
     22319 TIP3     4581     TIP3     H2       HT       0.417000       1.00800           0
     22320 TIP3     4582     TIP3     OH2      OT      -0.834000       15.9994           0
     22321 TIP3     4582     TIP3     H1       HT       0.417000       1.00800           0
     22322 TIP3     4582     TIP3     H2       HT       0.417000       1.00800           0
     22323 TIP3     4583     TIP3     OH2      OT      -0.834000       15.9994           0
     22324 TIP3     4583     TIP3     H1       HT       0.417000       1.00800           0
     22325 TIP3     4583     TIP3     H2       HT       0.417000       1.00800           0
     22326 TIP3     4584     TIP3     OH2      OT      -0.834000       15.9994           0
     22327 TIP3     4584     TIP3     H1       HT       0.417000       1.00800           0
     22328 TIP3     4584     TIP3     H2       HT       0.417000       1.00800           0
     22329 TIP3     4585     TIP3     OH2      OT      -0.834000       15.9994           0
     22330 TIP3     4585     TIP3     H1       HT       0.417000       1.00800           0
     22331 TIP3     4585     TIP3     H2       HT       0.417000       1.00800           0
     22332 TIP3     4586     TIP3     OH2      OT      -0.834000       15.9994           0
     22333 TIP3     4586     TIP3     H1       HT       0.417000       1.00800           0
     22334 TIP3     4586     TIP3     H2       HT       0.417000       1.00800           0
     22335 TIP3     4587     TIP3     OH2      OT      -0.834000       15.9994           0
     22336 TIP3     4587     TIP3     H1       HT       0.417000       1.00800           0
     22337 TIP3     4587     TIP3     H2       HT       0.417000       1.00800           0
     22338 TIP3     4588     TIP3     OH2      OT      -0.834000       15.9994           0
     22339 TIP3     4588     TIP3     H1       HT       0.417000       1.00800           0
     22340 TIP3     4588     TIP3     H2       HT       0.417000       1.00800           0
     22341 TIP3     4589     TIP3     OH2      OT      -0.834000       15.9994           0
     22342 TIP3     4589     TIP3     H1       HT       0.417000       1.00800           0
     22343 TIP3     4589     TIP3     H2       HT       0.417000       1.00800           0
     22344 TIP3     4590     TIP3     OH2      OT      -0.834000       15.9994           0
     22345 TIP3     4590     TIP3     H1       HT       0.417000       1.00800           0
     22346 TIP3     4590     TIP3     H2       HT       0.417000       1.00800           0
     22347 TIP3     4591     TIP3     OH2      OT      -0.834000       15.9994           0
     22348 TIP3     4591     TIP3     H1       HT       0.417000       1.00800           0
     22349 TIP3     4591     TIP3     H2       HT       0.417000       1.00800           0
     22350 TIP3     4592     TIP3     OH2      OT      -0.834000       15.9994           0
     22351 TIP3     4592     TIP3     H1       HT       0.417000       1.00800           0
     22352 TIP3     4592     TIP3     H2       HT       0.417000       1.00800           0
     22353 TIP3     4593     TIP3     OH2      OT      -0.834000       15.9994           0
     22354 TIP3     4593     TIP3     H1       HT       0.417000       1.00800           0
     22355 TIP3     4593     TIP3     H2       HT       0.417000       1.00800           0
     22356 TIP3     4594     TIP3     OH2      OT      -0.834000       15.9994           0
     22357 TIP3     4594     TIP3     H1       HT       0.417000       1.00800           0
     22358 TIP3     4594     TIP3     H2       HT       0.417000       1.00800           0
     22359 TIP3     4595     TIP3     OH2      OT      -0.834000       15.9994           0
     22360 TIP3     4595     TIP3     H1       HT       0.417000       1.00800           0
     22361 TIP3     4595     TIP3     H2       HT       0.417000       1.00800           0
     22362 TIP3     4596     TIP3     OH2      OT      -0.834000       15.9994           0
     22363 TIP3     4596     TIP3     H1       HT       0.417000       1.00800           0
     22364 TIP3     4596     TIP3     H2       HT       0.417000       1.00800           0
     22365 TIP3     4597     TIP3     OH2      OT      -0.834000       15.9994           0
     22366 TIP3     4597     TIP3     H1       HT       0.417000       1.00800           0
     22367 TIP3     4597     TIP3     H2       HT       0.417000       1.00800           0
     22368 TIP3     4598     TIP3     OH2      OT      -0.834000       15.9994           0
     22369 TIP3     4598     TIP3     H1       HT       0.417000       1.00800           0
     22370 TIP3     4598     TIP3     H2       HT       0.417000       1.00800           0
     22371 TIP3     4599     TIP3     OH2      OT      -0.834000       15.9994           0
     22372 TIP3     4599     TIP3     H1       HT       0.417000       1.00800           0
     22373 TIP3     4599     TIP3     H2       HT       0.417000       1.00800           0
     22374 TIP3     4600     TIP3     OH2      OT      -0.834000       15.9994           0
     22375 TIP3     4600     TIP3     H1       HT       0.417000       1.00800           0
     22376 TIP3     4600     TIP3     H2       HT       0.417000       1.00800           0
     22377 TIP3     4601     TIP3     OH2      OT      -0.834000       15.9994           0
     22378 TIP3     4601     TIP3     H1       HT       0.417000       1.00800           0
     22379 TIP3     4601     TIP3     H2       HT       0.417000       1.00800           0
     22380 TIP3     4602     TIP3     OH2      OT      -0.834000       15.9994           0
     22381 TIP3     4602     TIP3     H1       HT       0.417000       1.00800           0
     22382 TIP3     4602     TIP3     H2       HT       0.417000       1.00800           0
     22383 TIP3     4603     TIP3     OH2      OT      -0.834000       15.9994           0
     22384 TIP3     4603     TIP3     H1       HT       0.417000       1.00800           0
     22385 TIP3     4603     TIP3     H2       HT       0.417000       1.00800           0
     22386 TIP3     4604     TIP3     OH2      OT      -0.834000       15.9994           0
     22387 TIP3     4604     TIP3     H1       HT       0.417000       1.00800           0
     22388 TIP3     4604     TIP3     H2       HT       0.417000       1.00800           0
     22389 TIP3     4605     TIP3     OH2      OT      -0.834000       15.9994           0
     22390 TIP3     4605     TIP3     H1       HT       0.417000       1.00800           0
     22391 TIP3     4605     TIP3     H2       HT       0.417000       1.00800           0
     22392 TIP3     4606     TIP3     OH2      OT      -0.834000       15.9994           0
     22393 TIP3     4606     TIP3     H1       HT       0.417000       1.00800           0
     22394 TIP3     4606     TIP3     H2       HT       0.417000       1.00800           0
     22395 TIP3     4607     TIP3     OH2      OT      -0.834000       15.9994           0
     22396 TIP3     4607     TIP3     H1       HT       0.417000       1.00800           0
     22397 TIP3     4607     TIP3     H2       HT       0.417000       1.00800           0
     22398 TIP3     4608     TIP3     OH2      OT      -0.834000       15.9994           0
     22399 TIP3     4608     TIP3     H1       HT       0.417000       1.00800           0
     22400 TIP3     4608     TIP3     H2       HT       0.417000       1.00800           0
     22401 TIP3     4609     TIP3     OH2      OT      -0.834000       15.9994           0
     22402 TIP3     4609     TIP3     H1       HT       0.417000       1.00800           0
     22403 TIP3     4609     TIP3     H2       HT       0.417000       1.00800           0
     22404 TIP3     4610     TIP3     OH2      OT      -0.834000       15.9994           0
     22405 TIP3     4610     TIP3     H1       HT       0.417000       1.00800           0
     22406 TIP3     4610     TIP3     H2       HT       0.417000       1.00800           0
     22407 TIP3     4611     TIP3     OH2      OT      -0.834000       15.9994           0
     22408 TIP3     4611     TIP3     H1       HT       0.417000       1.00800           0
     22409 TIP3     4611     TIP3     H2       HT       0.417000       1.00800           0
     22410 TIP3     4612     TIP3     OH2      OT      -0.834000       15.9994           0
     22411 TIP3     4612     TIP3     H1       HT       0.417000       1.00800           0
     22412 TIP3     4612     TIP3     H2       HT       0.417000       1.00800           0
     22413 TIP3     4613     TIP3     OH2      OT      -0.834000       15.9994           0
     22414 TIP3     4613     TIP3     H1       HT       0.417000       1.00800           0
     22415 TIP3     4613     TIP3     H2       HT       0.417000       1.00800           0
     22416 TIP3     4614     TIP3     OH2      OT      -0.834000       15.9994           0
     22417 TIP3     4614     TIP3     H1       HT       0.417000       1.00800           0
     22418 TIP3     4614     TIP3     H2       HT       0.417000       1.00800           0
     22419 TIP3     4615     TIP3     OH2      OT      -0.834000       15.9994           0
     22420 TIP3     4615     TIP3     H1       HT       0.417000       1.00800           0
     22421 TIP3     4615     TIP3     H2       HT       0.417000       1.00800           0
     22422 TIP3     4616     TIP3     OH2      OT      -0.834000       15.9994           0
     22423 TIP3     4616     TIP3     H1       HT       0.417000       1.00800           0
     22424 TIP3     4616     TIP3     H2       HT       0.417000       1.00800           0
     22425 TIP3     4617     TIP3     OH2      OT      -0.834000       15.9994           0
     22426 TIP3     4617     TIP3     H1       HT       0.417000       1.00800           0
     22427 TIP3     4617     TIP3     H2       HT       0.417000       1.00800           0
     22428 TIP3     4618     TIP3     OH2      OT      -0.834000       15.9994           0
     22429 TIP3     4618     TIP3     H1       HT       0.417000       1.00800           0
     22430 TIP3     4618     TIP3     H2       HT       0.417000       1.00800           0
     22431 TIP3     4619     TIP3     OH2      OT      -0.834000       15.9994           0
     22432 TIP3     4619     TIP3     H1       HT       0.417000       1.00800           0
     22433 TIP3     4619     TIP3     H2       HT       0.417000       1.00800           0
     22434 TIP3     4620     TIP3     OH2      OT      -0.834000       15.9994           0
     22435 TIP3     4620     TIP3     H1       HT       0.417000       1.00800           0
     22436 TIP3     4620     TIP3     H2       HT       0.417000       1.00800           0
     22437 TIP3     4621     TIP3     OH2      OT      -0.834000       15.9994           0
     22438 TIP3     4621     TIP3     H1       HT       0.417000       1.00800           0
     22439 TIP3     4621     TIP3     H2       HT       0.417000       1.00800           0
     22440 TIP3     4622     TIP3     OH2      OT      -0.834000       15.9994           0
     22441 TIP3     4622     TIP3     H1       HT       0.417000       1.00800           0
     22442 TIP3     4622     TIP3     H2       HT       0.417000       1.00800           0
     22443 TIP3     4623     TIP3     OH2      OT      -0.834000       15.9994           0
     22444 TIP3     4623     TIP3     H1       HT       0.417000       1.00800           0
     22445 TIP3     4623     TIP3     H2       HT       0.417000       1.00800           0
     22446 TIP3     4624     TIP3     OH2      OT      -0.834000       15.9994           0
     22447 TIP3     4624     TIP3     H1       HT       0.417000       1.00800           0
     22448 TIP3     4624     TIP3     H2       HT       0.417000       1.00800           0
     22449 TIP3     4625     TIP3     OH2      OT      -0.834000       15.9994           0
     22450 TIP3     4625     TIP3     H1       HT       0.417000       1.00800           0
     22451 TIP3     4625     TIP3     H2       HT       0.417000       1.00800           0
     22452 TIP3     4626     TIP3     OH2      OT      -0.834000       15.9994           0
     22453 TIP3     4626     TIP3     H1       HT       0.417000       1.00800           0
     22454 TIP3     4626     TIP3     H2       HT       0.417000       1.00800           0
     22455 TIP3     4627     TIP3     OH2      OT      -0.834000       15.9994           0
     22456 TIP3     4627     TIP3     H1       HT       0.417000       1.00800           0
     22457 TIP3     4627     TIP3     H2       HT       0.417000       1.00800           0
     22458 TIP3     4628     TIP3     OH2      OT      -0.834000       15.9994           0
     22459 TIP3     4628     TIP3     H1       HT       0.417000       1.00800           0
     22460 TIP3     4628     TIP3     H2       HT       0.417000       1.00800           0
     22461 TIP3     4629     TIP3     OH2      OT      -0.834000       15.9994           0
     22462 TIP3     4629     TIP3     H1       HT       0.417000       1.00800           0
     22463 TIP3     4629     TIP3     H2       HT       0.417000       1.00800           0
     22464 TIP3     4630     TIP3     OH2      OT      -0.834000       15.9994           0
     22465 TIP3     4630     TIP3     H1       HT       0.417000       1.00800           0
     22466 TIP3     4630     TIP3     H2       HT       0.417000       1.00800           0
     22467 TIP3     4631     TIP3     OH2      OT      -0.834000       15.9994           0
     22468 TIP3     4631     TIP3     H1       HT       0.417000       1.00800           0
     22469 TIP3     4631     TIP3     H2       HT       0.417000       1.00800           0
     22470 TIP3     4632     TIP3     OH2      OT      -0.834000       15.9994           0
     22471 TIP3     4632     TIP3     H1       HT       0.417000       1.00800           0
     22472 TIP3     4632     TIP3     H2       HT       0.417000       1.00800           0
     22473 TIP3     4633     TIP3     OH2      OT      -0.834000       15.9994           0
     22474 TIP3     4633     TIP3     H1       HT       0.417000       1.00800           0
     22475 TIP3     4633     TIP3     H2       HT       0.417000       1.00800           0
     22476 TIP3     4634     TIP3     OH2      OT      -0.834000       15.9994           0
     22477 TIP3     4634     TIP3     H1       HT       0.417000       1.00800           0
     22478 TIP3     4634     TIP3     H2       HT       0.417000       1.00800           0
     22479 TIP3     4635     TIP3     OH2      OT      -0.834000       15.9994           0
     22480 TIP3     4635     TIP3     H1       HT       0.417000       1.00800           0
     22481 TIP3     4635     TIP3     H2       HT       0.417000       1.00800           0
     22482 TIP3     4636     TIP3     OH2      OT      -0.834000       15.9994           0
     22483 TIP3     4636     TIP3     H1       HT       0.417000       1.00800           0
     22484 TIP3     4636     TIP3     H2       HT       0.417000       1.00800           0
     22485 TIP3     4637     TIP3     OH2      OT      -0.834000       15.9994           0
     22486 TIP3     4637     TIP3     H1       HT       0.417000       1.00800           0
     22487 TIP3     4637     TIP3     H2       HT       0.417000       1.00800           0
     22488 TIP3     4638     TIP3     OH2      OT      -0.834000       15.9994           0
     22489 TIP3     4638     TIP3     H1       HT       0.417000       1.00800           0
     22490 TIP3     4638     TIP3     H2       HT       0.417000       1.00800           0
     22491 TIP3     4639     TIP3     OH2      OT      -0.834000       15.9994           0
     22492 TIP3     4639     TIP3     H1       HT       0.417000       1.00800           0
     22493 TIP3     4639     TIP3     H2       HT       0.417000       1.00800           0
     22494 TIP3     4640     TIP3     OH2      OT      -0.834000       15.9994           0
     22495 TIP3     4640     TIP3     H1       HT       0.417000       1.00800           0
     22496 TIP3     4640     TIP3     H2       HT       0.417000       1.00800           0
     22497 TIP3     4641     TIP3     OH2      OT      -0.834000       15.9994           0
     22498 TIP3     4641     TIP3     H1       HT       0.417000       1.00800           0
     22499 TIP3     4641     TIP3     H2       HT       0.417000       1.00800           0
     22500 TIP3     4642     TIP3     OH2      OT      -0.834000       15.9994           0
     22501 TIP3     4642     TIP3     H1       HT       0.417000       1.00800           0
     22502 TIP3     4642     TIP3     H2       HT       0.417000       1.00800           0
     22503 TIP3     4643     TIP3     OH2      OT      -0.834000       15.9994           0
     22504 TIP3     4643     TIP3     H1       HT       0.417000       1.00800           0
     22505 TIP3     4643     TIP3     H2       HT       0.417000       1.00800           0
     22506 TIP3     4644     TIP3     OH2      OT      -0.834000       15.9994           0
     22507 TIP3     4644     TIP3     H1       HT       0.417000       1.00800           0
     22508 TIP3     4644     TIP3     H2       HT       0.417000       1.00800           0
     22509 TIP3     4645     TIP3     OH2      OT      -0.834000       15.9994           0
     22510 TIP3     4645     TIP3     H1       HT       0.417000       1.00800           0
     22511 TIP3     4645     TIP3     H2       HT       0.417000       1.00800           0
     22512 TIP3     4646     TIP3     OH2      OT      -0.834000       15.9994           0
     22513 TIP3     4646     TIP3     H1       HT       0.417000       1.00800           0
     22514 TIP3     4646     TIP3     H2       HT       0.417000       1.00800           0
     22515 TIP3     4647     TIP3     OH2      OT      -0.834000       15.9994           0
     22516 TIP3     4647     TIP3     H1       HT       0.417000       1.00800           0
     22517 TIP3     4647     TIP3     H2       HT       0.417000       1.00800           0
     22518 TIP3     4648     TIP3     OH2      OT      -0.834000       15.9994           0
     22519 TIP3     4648     TIP3     H1       HT       0.417000       1.00800           0
     22520 TIP3     4648     TIP3     H2       HT       0.417000       1.00800           0
     22521 TIP3     4649     TIP3     OH2      OT      -0.834000       15.9994           0
     22522 TIP3     4649     TIP3     H1       HT       0.417000       1.00800           0
     22523 TIP3     4649     TIP3     H2       HT       0.417000       1.00800           0
     22524 TIP3     4650     TIP3     OH2      OT      -0.834000       15.9994           0
     22525 TIP3     4650     TIP3     H1       HT       0.417000       1.00800           0
     22526 TIP3     4650     TIP3     H2       HT       0.417000       1.00800           0
     22527 TIP3     4651     TIP3     OH2      OT      -0.834000       15.9994           0
     22528 TIP3     4651     TIP3     H1       HT       0.417000       1.00800           0
     22529 TIP3     4651     TIP3     H2       HT       0.417000       1.00800           0
     22530 TIP3     4652     TIP3     OH2      OT      -0.834000       15.9994           0
     22531 TIP3     4652     TIP3     H1       HT       0.417000       1.00800           0
     22532 TIP3     4652     TIP3     H2       HT       0.417000       1.00800           0
     22533 TIP3     4653     TIP3     OH2      OT      -0.834000       15.9994           0
     22534 TIP3     4653     TIP3     H1       HT       0.417000       1.00800           0
     22535 TIP3     4653     TIP3     H2       HT       0.417000       1.00800           0
     22536 TIP3     4654     TIP3     OH2      OT      -0.834000       15.9994           0
     22537 TIP3     4654     TIP3     H1       HT       0.417000       1.00800           0
     22538 TIP3     4654     TIP3     H2       HT       0.417000       1.00800           0
     22539 TIP3     4655     TIP3     OH2      OT      -0.834000       15.9994           0
     22540 TIP3     4655     TIP3     H1       HT       0.417000       1.00800           0
     22541 TIP3     4655     TIP3     H2       HT       0.417000       1.00800           0
     22542 TIP3     4656     TIP3     OH2      OT      -0.834000       15.9994           0
     22543 TIP3     4656     TIP3     H1       HT       0.417000       1.00800           0
     22544 TIP3     4656     TIP3     H2       HT       0.417000       1.00800           0
     22545 TIP3     4657     TIP3     OH2      OT      -0.834000       15.9994           0
     22546 TIP3     4657     TIP3     H1       HT       0.417000       1.00800           0
     22547 TIP3     4657     TIP3     H2       HT       0.417000       1.00800           0
     22548 TIP3     4658     TIP3     OH2      OT      -0.834000       15.9994           0
     22549 TIP3     4658     TIP3     H1       HT       0.417000       1.00800           0
     22550 TIP3     4658     TIP3     H2       HT       0.417000       1.00800           0
     22551 TIP3     4659     TIP3     OH2      OT      -0.834000       15.9994           0
     22552 TIP3     4659     TIP3     H1       HT       0.417000       1.00800           0
     22553 TIP3     4659     TIP3     H2       HT       0.417000       1.00800           0
     22554 TIP3     4660     TIP3     OH2      OT      -0.834000       15.9994           0
     22555 TIP3     4660     TIP3     H1       HT       0.417000       1.00800           0
     22556 TIP3     4660     TIP3     H2       HT       0.417000       1.00800           0
     22557 TIP3     4661     TIP3     OH2      OT      -0.834000       15.9994           0
     22558 TIP3     4661     TIP3     H1       HT       0.417000       1.00800           0
     22559 TIP3     4661     TIP3     H2       HT       0.417000       1.00800           0
     22560 TIP3     4662     TIP3     OH2      OT      -0.834000       15.9994           0
     22561 TIP3     4662     TIP3     H1       HT       0.417000       1.00800           0
     22562 TIP3     4662     TIP3     H2       HT       0.417000       1.00800           0
     22563 TIP3     4663     TIP3     OH2      OT      -0.834000       15.9994           0
     22564 TIP3     4663     TIP3     H1       HT       0.417000       1.00800           0
     22565 TIP3     4663     TIP3     H2       HT       0.417000       1.00800           0
     22566 TIP3     4664     TIP3     OH2      OT      -0.834000       15.9994           0
     22567 TIP3     4664     TIP3     H1       HT       0.417000       1.00800           0
     22568 TIP3     4664     TIP3     H2       HT       0.417000       1.00800           0
     22569 TIP3     4665     TIP3     OH2      OT      -0.834000       15.9994           0
     22570 TIP3     4665     TIP3     H1       HT       0.417000       1.00800           0
     22571 TIP3     4665     TIP3     H2       HT       0.417000       1.00800           0
     22572 TIP3     4666     TIP3     OH2      OT      -0.834000       15.9994           0
     22573 TIP3     4666     TIP3     H1       HT       0.417000       1.00800           0
     22574 TIP3     4666     TIP3     H2       HT       0.417000       1.00800           0
     22575 TIP3     4667     TIP3     OH2      OT      -0.834000       15.9994           0
     22576 TIP3     4667     TIP3     H1       HT       0.417000       1.00800           0
     22577 TIP3     4667     TIP3     H2       HT       0.417000       1.00800           0
     22578 TIP3     4668     TIP3     OH2      OT      -0.834000       15.9994           0
     22579 TIP3     4668     TIP3     H1       HT       0.417000       1.00800           0
     22580 TIP3     4668     TIP3     H2       HT       0.417000       1.00800           0
     22581 TIP3     4669     TIP3     OH2      OT      -0.834000       15.9994           0
     22582 TIP3     4669     TIP3     H1       HT       0.417000       1.00800           0
     22583 TIP3     4669     TIP3     H2       HT       0.417000       1.00800           0
     22584 TIP3     4670     TIP3     OH2      OT      -0.834000       15.9994           0
     22585 TIP3     4670     TIP3     H1       HT       0.417000       1.00800           0
     22586 TIP3     4670     TIP3     H2       HT       0.417000       1.00800           0
     22587 TIP3     4671     TIP3     OH2      OT      -0.834000       15.9994           0
     22588 TIP3     4671     TIP3     H1       HT       0.417000       1.00800           0
     22589 TIP3     4671     TIP3     H2       HT       0.417000       1.00800           0
     22590 TIP3     4672     TIP3     OH2      OT      -0.834000       15.9994           0
     22591 TIP3     4672     TIP3     H1       HT       0.417000       1.00800           0
     22592 TIP3     4672     TIP3     H2       HT       0.417000       1.00800           0
     22593 TIP3     4673     TIP3     OH2      OT      -0.834000       15.9994           0
     22594 TIP3     4673     TIP3     H1       HT       0.417000       1.00800           0
     22595 TIP3     4673     TIP3     H2       HT       0.417000       1.00800           0
     22596 TIP3     4674     TIP3     OH2      OT      -0.834000       15.9994           0
     22597 TIP3     4674     TIP3     H1       HT       0.417000       1.00800           0
     22598 TIP3     4674     TIP3     H2       HT       0.417000       1.00800           0
     22599 TIP3     4675     TIP3     OH2      OT      -0.834000       15.9994           0
     22600 TIP3     4675     TIP3     H1       HT       0.417000       1.00800           0
     22601 TIP3     4675     TIP3     H2       HT       0.417000       1.00800           0
     22602 TIP3     4676     TIP3     OH2      OT      -0.834000       15.9994           0
     22603 TIP3     4676     TIP3     H1       HT       0.417000       1.00800           0
     22604 TIP3     4676     TIP3     H2       HT       0.417000       1.00800           0
     22605 TIP3     4677     TIP3     OH2      OT      -0.834000       15.9994           0
     22606 TIP3     4677     TIP3     H1       HT       0.417000       1.00800           0
     22607 TIP3     4677     TIP3     H2       HT       0.417000       1.00800           0
     22608 TIP3     4678     TIP3     OH2      OT      -0.834000       15.9994           0
     22609 TIP3     4678     TIP3     H1       HT       0.417000       1.00800           0
     22610 TIP3     4678     TIP3     H2       HT       0.417000       1.00800           0
     22611 TIP3     4679     TIP3     OH2      OT      -0.834000       15.9994           0
     22612 TIP3     4679     TIP3     H1       HT       0.417000       1.00800           0
     22613 TIP3     4679     TIP3     H2       HT       0.417000       1.00800           0
     22614 TIP3     4680     TIP3     OH2      OT      -0.834000       15.9994           0
     22615 TIP3     4680     TIP3     H1       HT       0.417000       1.00800           0
     22616 TIP3     4680     TIP3     H2       HT       0.417000       1.00800           0
     22617 TIP3     4681     TIP3     OH2      OT      -0.834000       15.9994           0
     22618 TIP3     4681     TIP3     H1       HT       0.417000       1.00800           0
     22619 TIP3     4681     TIP3     H2       HT       0.417000       1.00800           0
     22620 TIP3     4682     TIP3     OH2      OT      -0.834000       15.9994           0
     22621 TIP3     4682     TIP3     H1       HT       0.417000       1.00800           0
     22622 TIP3     4682     TIP3     H2       HT       0.417000       1.00800           0
     22623 TIP3     4683     TIP3     OH2      OT      -0.834000       15.9994           0
     22624 TIP3     4683     TIP3     H1       HT       0.417000       1.00800           0
     22625 TIP3     4683     TIP3     H2       HT       0.417000       1.00800           0
     22626 TIP3     4684     TIP3     OH2      OT      -0.834000       15.9994           0
     22627 TIP3     4684     TIP3     H1       HT       0.417000       1.00800           0
     22628 TIP3     4684     TIP3     H2       HT       0.417000       1.00800           0
     22629 TIP3     4685     TIP3     OH2      OT      -0.834000       15.9994           0
     22630 TIP3     4685     TIP3     H1       HT       0.417000       1.00800           0
     22631 TIP3     4685     TIP3     H2       HT       0.417000       1.00800           0
     22632 TIP3     4686     TIP3     OH2      OT      -0.834000       15.9994           0
     22633 TIP3     4686     TIP3     H1       HT       0.417000       1.00800           0
     22634 TIP3     4686     TIP3     H2       HT       0.417000       1.00800           0
     22635 TIP3     4687     TIP3     OH2      OT      -0.834000       15.9994           0
     22636 TIP3     4687     TIP3     H1       HT       0.417000       1.00800           0
     22637 TIP3     4687     TIP3     H2       HT       0.417000       1.00800           0
     22638 TIP3     4688     TIP3     OH2      OT      -0.834000       15.9994           0
     22639 TIP3     4688     TIP3     H1       HT       0.417000       1.00800           0
     22640 TIP3     4688     TIP3     H2       HT       0.417000       1.00800           0
     22641 TIP3     4689     TIP3     OH2      OT      -0.834000       15.9994           0
     22642 TIP3     4689     TIP3     H1       HT       0.417000       1.00800           0
     22643 TIP3     4689     TIP3     H2       HT       0.417000       1.00800           0
     22644 TIP3     4690     TIP3     OH2      OT      -0.834000       15.9994           0
     22645 TIP3     4690     TIP3     H1       HT       0.417000       1.00800           0
     22646 TIP3     4690     TIP3     H2       HT       0.417000       1.00800           0
     22647 TIP3     4691     TIP3     OH2      OT      -0.834000       15.9994           0
     22648 TIP3     4691     TIP3     H1       HT       0.417000       1.00800           0
     22649 TIP3     4691     TIP3     H2       HT       0.417000       1.00800           0
     22650 TIP3     4692     TIP3     OH2      OT      -0.834000       15.9994           0
     22651 TIP3     4692     TIP3     H1       HT       0.417000       1.00800           0
     22652 TIP3     4692     TIP3     H2       HT       0.417000       1.00800           0
     22653 TIP3     4693     TIP3     OH2      OT      -0.834000       15.9994           0
     22654 TIP3     4693     TIP3     H1       HT       0.417000       1.00800           0
     22655 TIP3     4693     TIP3     H2       HT       0.417000       1.00800           0
     22656 TIP3     4694     TIP3     OH2      OT      -0.834000       15.9994           0
     22657 TIP3     4694     TIP3     H1       HT       0.417000       1.00800           0
     22658 TIP3     4694     TIP3     H2       HT       0.417000       1.00800           0
     22659 TIP3     4695     TIP3     OH2      OT      -0.834000       15.9994           0
     22660 TIP3     4695     TIP3     H1       HT       0.417000       1.00800           0
     22661 TIP3     4695     TIP3     H2       HT       0.417000       1.00800           0
     22662 TIP3     4696     TIP3     OH2      OT      -0.834000       15.9994           0
     22663 TIP3     4696     TIP3     H1       HT       0.417000       1.00800           0
     22664 TIP3     4696     TIP3     H2       HT       0.417000       1.00800           0
     22665 TIP3     4697     TIP3     OH2      OT      -0.834000       15.9994           0
     22666 TIP3     4697     TIP3     H1       HT       0.417000       1.00800           0
     22667 TIP3     4697     TIP3     H2       HT       0.417000       1.00800           0
     22668 TIP3     4698     TIP3     OH2      OT      -0.834000       15.9994           0
     22669 TIP3     4698     TIP3     H1       HT       0.417000       1.00800           0
     22670 TIP3     4698     TIP3     H2       HT       0.417000       1.00800           0
     22671 TIP3     4699     TIP3     OH2      OT      -0.834000       15.9994           0
     22672 TIP3     4699     TIP3     H1       HT       0.417000       1.00800           0
     22673 TIP3     4699     TIP3     H2       HT       0.417000       1.00800           0
     22674 TIP3     4700     TIP3     OH2      OT      -0.834000       15.9994           0
     22675 TIP3     4700     TIP3     H1       HT       0.417000       1.00800           0
     22676 TIP3     4700     TIP3     H2       HT       0.417000       1.00800           0
     22677 TIP3     4701     TIP3     OH2      OT      -0.834000       15.9994           0
     22678 TIP3     4701     TIP3     H1       HT       0.417000       1.00800           0
     22679 TIP3     4701     TIP3     H2       HT       0.417000       1.00800           0
     22680 TIP3     4702     TIP3     OH2      OT      -0.834000       15.9994           0
     22681 TIP3     4702     TIP3     H1       HT       0.417000       1.00800           0
     22682 TIP3     4702     TIP3     H2       HT       0.417000       1.00800           0
     22683 TIP3     4703     TIP3     OH2      OT      -0.834000       15.9994           0
     22684 TIP3     4703     TIP3     H1       HT       0.417000       1.00800           0
     22685 TIP3     4703     TIP3     H2       HT       0.417000       1.00800           0
     22686 TIP3     4704     TIP3     OH2      OT      -0.834000       15.9994           0
     22687 TIP3     4704     TIP3     H1       HT       0.417000       1.00800           0
     22688 TIP3     4704     TIP3     H2       HT       0.417000       1.00800           0
     22689 TIP3     4705     TIP3     OH2      OT      -0.834000       15.9994           0
     22690 TIP3     4705     TIP3     H1       HT       0.417000       1.00800           0
     22691 TIP3     4705     TIP3     H2       HT       0.417000       1.00800           0
     22692 TIP3     4706     TIP3     OH2      OT      -0.834000       15.9994           0
     22693 TIP3     4706     TIP3     H1       HT       0.417000       1.00800           0
     22694 TIP3     4706     TIP3     H2       HT       0.417000       1.00800           0
     22695 TIP3     4707     TIP3     OH2      OT      -0.834000       15.9994           0
     22696 TIP3     4707     TIP3     H1       HT       0.417000       1.00800           0
     22697 TIP3     4707     TIP3     H2       HT       0.417000       1.00800           0
     22698 TIP3     4708     TIP3     OH2      OT      -0.834000       15.9994           0
     22699 TIP3     4708     TIP3     H1       HT       0.417000       1.00800           0
     22700 TIP3     4708     TIP3     H2       HT       0.417000       1.00800           0
     22701 TIP3     4709     TIP3     OH2      OT      -0.834000       15.9994           0
     22702 TIP3     4709     TIP3     H1       HT       0.417000       1.00800           0
     22703 TIP3     4709     TIP3     H2       HT       0.417000       1.00800           0
     22704 TIP3     4710     TIP3     OH2      OT      -0.834000       15.9994           0
     22705 TIP3     4710     TIP3     H1       HT       0.417000       1.00800           0
     22706 TIP3     4710     TIP3     H2       HT       0.417000       1.00800           0
     22707 TIP3     4711     TIP3     OH2      OT      -0.834000       15.9994           0
     22708 TIP3     4711     TIP3     H1       HT       0.417000       1.00800           0
     22709 TIP3     4711     TIP3     H2       HT       0.417000       1.00800           0
     22710 TIP3     4712     TIP3     OH2      OT      -0.834000       15.9994           0
     22711 TIP3     4712     TIP3     H1       HT       0.417000       1.00800           0
     22712 TIP3     4712     TIP3     H2       HT       0.417000       1.00800           0
     22713 TIP3     4713     TIP3     OH2      OT      -0.834000       15.9994           0
     22714 TIP3     4713     TIP3     H1       HT       0.417000       1.00800           0
     22715 TIP3     4713     TIP3     H2       HT       0.417000       1.00800           0
     22716 TIP3     4714     TIP3     OH2      OT      -0.834000       15.9994           0
     22717 TIP3     4714     TIP3     H1       HT       0.417000       1.00800           0
     22718 TIP3     4714     TIP3     H2       HT       0.417000       1.00800           0
     22719 TIP3     4715     TIP3     OH2      OT      -0.834000       15.9994           0
     22720 TIP3     4715     TIP3     H1       HT       0.417000       1.00800           0
     22721 TIP3     4715     TIP3     H2       HT       0.417000       1.00800           0
     22722 TIP3     4716     TIP3     OH2      OT      -0.834000       15.9994           0
     22723 TIP3     4716     TIP3     H1       HT       0.417000       1.00800           0
     22724 TIP3     4716     TIP3     H2       HT       0.417000       1.00800           0
     22725 TIP3     4717     TIP3     OH2      OT      -0.834000       15.9994           0
     22726 TIP3     4717     TIP3     H1       HT       0.417000       1.00800           0
     22727 TIP3     4717     TIP3     H2       HT       0.417000       1.00800           0
     22728 TIP3     4718     TIP3     OH2      OT      -0.834000       15.9994           0
     22729 TIP3     4718     TIP3     H1       HT       0.417000       1.00800           0
     22730 TIP3     4718     TIP3     H2       HT       0.417000       1.00800           0
     22731 TIP3     4719     TIP3     OH2      OT      -0.834000       15.9994           0
     22732 TIP3     4719     TIP3     H1       HT       0.417000       1.00800           0
     22733 TIP3     4719     TIP3     H2       HT       0.417000       1.00800           0
     22734 TIP3     4720     TIP3     OH2      OT      -0.834000       15.9994           0
     22735 TIP3     4720     TIP3     H1       HT       0.417000       1.00800           0
     22736 TIP3     4720     TIP3     H2       HT       0.417000       1.00800           0
     22737 TIP3     4721     TIP3     OH2      OT      -0.834000       15.9994           0
     22738 TIP3     4721     TIP3     H1       HT       0.417000       1.00800           0
     22739 TIP3     4721     TIP3     H2       HT       0.417000       1.00800           0
     22740 TIP3     4722     TIP3     OH2      OT      -0.834000       15.9994           0
     22741 TIP3     4722     TIP3     H1       HT       0.417000       1.00800           0
     22742 TIP3     4722     TIP3     H2       HT       0.417000       1.00800           0
     22743 TIP3     4723     TIP3     OH2      OT      -0.834000       15.9994           0
     22744 TIP3     4723     TIP3     H1       HT       0.417000       1.00800           0
     22745 TIP3     4723     TIP3     H2       HT       0.417000       1.00800           0
     22746 TIP3     4724     TIP3     OH2      OT      -0.834000       15.9994           0
     22747 TIP3     4724     TIP3     H1       HT       0.417000       1.00800           0
     22748 TIP3     4724     TIP3     H2       HT       0.417000       1.00800           0
     22749 TIP3     4725     TIP3     OH2      OT      -0.834000       15.9994           0
     22750 TIP3     4725     TIP3     H1       HT       0.417000       1.00800           0
     22751 TIP3     4725     TIP3     H2       HT       0.417000       1.00800           0
     22752 TIP3     4726     TIP3     OH2      OT      -0.834000       15.9994           0
     22753 TIP3     4726     TIP3     H1       HT       0.417000       1.00800           0
     22754 TIP3     4726     TIP3     H2       HT       0.417000       1.00800           0
     22755 TIP3     4727     TIP3     OH2      OT      -0.834000       15.9994           0
     22756 TIP3     4727     TIP3     H1       HT       0.417000       1.00800           0
     22757 TIP3     4727     TIP3     H2       HT       0.417000       1.00800           0
     22758 TIP3     4728     TIP3     OH2      OT      -0.834000       15.9994           0
     22759 TIP3     4728     TIP3     H1       HT       0.417000       1.00800           0
     22760 TIP3     4728     TIP3     H2       HT       0.417000       1.00800           0
     22761 TIP3     4729     TIP3     OH2      OT      -0.834000       15.9994           0
     22762 TIP3     4729     TIP3     H1       HT       0.417000       1.00800           0
     22763 TIP3     4729     TIP3     H2       HT       0.417000       1.00800           0
     22764 TIP3     4730     TIP3     OH2      OT      -0.834000       15.9994           0
     22765 TIP3     4730     TIP3     H1       HT       0.417000       1.00800           0
     22766 TIP3     4730     TIP3     H2       HT       0.417000       1.00800           0
     22767 TIP3     4731     TIP3     OH2      OT      -0.834000       15.9994           0
     22768 TIP3     4731     TIP3     H1       HT       0.417000       1.00800           0
     22769 TIP3     4731     TIP3     H2       HT       0.417000       1.00800           0
     22770 TIP3     4732     TIP3     OH2      OT      -0.834000       15.9994           0
     22771 TIP3     4732     TIP3     H1       HT       0.417000       1.00800           0
     22772 TIP3     4732     TIP3     H2       HT       0.417000       1.00800           0
     22773 TIP3     4733     TIP3     OH2      OT      -0.834000       15.9994           0
     22774 TIP3     4733     TIP3     H1       HT       0.417000       1.00800           0
     22775 TIP3     4733     TIP3     H2       HT       0.417000       1.00800           0
     22776 TIP3     4734     TIP3     OH2      OT      -0.834000       15.9994           0
     22777 TIP3     4734     TIP3     H1       HT       0.417000       1.00800           0
     22778 TIP3     4734     TIP3     H2       HT       0.417000       1.00800           0
     22779 TIP3     4735     TIP3     OH2      OT      -0.834000       15.9994           0
     22780 TIP3     4735     TIP3     H1       HT       0.417000       1.00800           0
     22781 TIP3     4735     TIP3     H2       HT       0.417000       1.00800           0
     22782 TIP3     4736     TIP3     OH2      OT      -0.834000       15.9994           0
     22783 TIP3     4736     TIP3     H1       HT       0.417000       1.00800           0
     22784 TIP3     4736     TIP3     H2       HT       0.417000       1.00800           0
     22785 TIP3     4737     TIP3     OH2      OT      -0.834000       15.9994           0
     22786 TIP3     4737     TIP3     H1       HT       0.417000       1.00800           0
     22787 TIP3     4737     TIP3     H2       HT       0.417000       1.00800           0
     22788 TIP3     4738     TIP3     OH2      OT      -0.834000       15.9994           0
     22789 TIP3     4738     TIP3     H1       HT       0.417000       1.00800           0
     22790 TIP3     4738     TIP3     H2       HT       0.417000       1.00800           0
     22791 TIP3     4739     TIP3     OH2      OT      -0.834000       15.9994           0
     22792 TIP3     4739     TIP3     H1       HT       0.417000       1.00800           0
     22793 TIP3     4739     TIP3     H2       HT       0.417000       1.00800           0
     22794 TIP3     4740     TIP3     OH2      OT      -0.834000       15.9994           0
     22795 TIP3     4740     TIP3     H1       HT       0.417000       1.00800           0
     22796 TIP3     4740     TIP3     H2       HT       0.417000       1.00800           0
     22797 TIP3     4741     TIP3     OH2      OT      -0.834000       15.9994           0
     22798 TIP3     4741     TIP3     H1       HT       0.417000       1.00800           0
     22799 TIP3     4741     TIP3     H2       HT       0.417000       1.00800           0
     22800 TIP3     4742     TIP3     OH2      OT      -0.834000       15.9994           0
     22801 TIP3     4742     TIP3     H1       HT       0.417000       1.00800           0
     22802 TIP3     4742     TIP3     H2       HT       0.417000       1.00800           0
     22803 TIP3     4743     TIP3     OH2      OT      -0.834000       15.9994           0
     22804 TIP3     4743     TIP3     H1       HT       0.417000       1.00800           0
     22805 TIP3     4743     TIP3     H2       HT       0.417000       1.00800           0
     22806 TIP3     4744     TIP3     OH2      OT      -0.834000       15.9994           0
     22807 TIP3     4744     TIP3     H1       HT       0.417000       1.00800           0
     22808 TIP3     4744     TIP3     H2       HT       0.417000       1.00800           0
     22809 TIP3     4745     TIP3     OH2      OT      -0.834000       15.9994           0
     22810 TIP3     4745     TIP3     H1       HT       0.417000       1.00800           0
     22811 TIP3     4745     TIP3     H2       HT       0.417000       1.00800           0
     22812 TIP3     4746     TIP3     OH2      OT      -0.834000       15.9994           0
     22813 TIP3     4746     TIP3     H1       HT       0.417000       1.00800           0
     22814 TIP3     4746     TIP3     H2       HT       0.417000       1.00800           0
     22815 TIP3     4747     TIP3     OH2      OT      -0.834000       15.9994           0
     22816 TIP3     4747     TIP3     H1       HT       0.417000       1.00800           0
     22817 TIP3     4747     TIP3     H2       HT       0.417000       1.00800           0
     22818 TIP3     4748     TIP3     OH2      OT      -0.834000       15.9994           0
     22819 TIP3     4748     TIP3     H1       HT       0.417000       1.00800           0
     22820 TIP3     4748     TIP3     H2       HT       0.417000       1.00800           0
     22821 TIP3     4749     TIP3     OH2      OT      -0.834000       15.9994           0
     22822 TIP3     4749     TIP3     H1       HT       0.417000       1.00800           0
     22823 TIP3     4749     TIP3     H2       HT       0.417000       1.00800           0
     22824 TIP3     4750     TIP3     OH2      OT      -0.834000       15.9994           0
     22825 TIP3     4750     TIP3     H1       HT       0.417000       1.00800           0
     22826 TIP3     4750     TIP3     H2       HT       0.417000       1.00800           0
     22827 TIP3     4751     TIP3     OH2      OT      -0.834000       15.9994           0
     22828 TIP3     4751     TIP3     H1       HT       0.417000       1.00800           0
     22829 TIP3     4751     TIP3     H2       HT       0.417000       1.00800           0
     22830 TIP3     4752     TIP3     OH2      OT      -0.834000       15.9994           0
     22831 TIP3     4752     TIP3     H1       HT       0.417000       1.00800           0
     22832 TIP3     4752     TIP3     H2       HT       0.417000       1.00800           0
     22833 TIP3     4753     TIP3     OH2      OT      -0.834000       15.9994           0
     22834 TIP3     4753     TIP3     H1       HT       0.417000       1.00800           0
     22835 TIP3     4753     TIP3     H2       HT       0.417000       1.00800           0
     22836 TIP3     4754     TIP3     OH2      OT      -0.834000       15.9994           0
     22837 TIP3     4754     TIP3     H1       HT       0.417000       1.00800           0
     22838 TIP3     4754     TIP3     H2       HT       0.417000       1.00800           0
     22839 TIP3     4755     TIP3     OH2      OT      -0.834000       15.9994           0
     22840 TIP3     4755     TIP3     H1       HT       0.417000       1.00800           0
     22841 TIP3     4755     TIP3     H2       HT       0.417000       1.00800           0
     22842 TIP3     4756     TIP3     OH2      OT      -0.834000       15.9994           0
     22843 TIP3     4756     TIP3     H1       HT       0.417000       1.00800           0
     22844 TIP3     4756     TIP3     H2       HT       0.417000       1.00800           0
     22845 TIP3     4757     TIP3     OH2      OT      -0.834000       15.9994           0
     22846 TIP3     4757     TIP3     H1       HT       0.417000       1.00800           0
     22847 TIP3     4757     TIP3     H2       HT       0.417000       1.00800           0
     22848 TIP3     4758     TIP3     OH2      OT      -0.834000       15.9994           0
     22849 TIP3     4758     TIP3     H1       HT       0.417000       1.00800           0
     22850 TIP3     4758     TIP3     H2       HT       0.417000       1.00800           0
     22851 TIP3     4759     TIP3     OH2      OT      -0.834000       15.9994           0
     22852 TIP3     4759     TIP3     H1       HT       0.417000       1.00800           0
     22853 TIP3     4759     TIP3     H2       HT       0.417000       1.00800           0
     22854 TIP3     4760     TIP3     OH2      OT      -0.834000       15.9994           0
     22855 TIP3     4760     TIP3     H1       HT       0.417000       1.00800           0
     22856 TIP3     4760     TIP3     H2       HT       0.417000       1.00800           0
     22857 TIP3     4761     TIP3     OH2      OT      -0.834000       15.9994           0
     22858 TIP3     4761     TIP3     H1       HT       0.417000       1.00800           0
     22859 TIP3     4761     TIP3     H2       HT       0.417000       1.00800           0
     22860 TIP3     4762     TIP3     OH2      OT      -0.834000       15.9994           0
     22861 TIP3     4762     TIP3     H1       HT       0.417000       1.00800           0
     22862 TIP3     4762     TIP3     H2       HT       0.417000       1.00800           0
     22863 TIP3     4763     TIP3     OH2      OT      -0.834000       15.9994           0
     22864 TIP3     4763     TIP3     H1       HT       0.417000       1.00800           0
     22865 TIP3     4763     TIP3     H2       HT       0.417000       1.00800           0
     22866 TIP3     4764     TIP3     OH2      OT      -0.834000       15.9994           0
     22867 TIP3     4764     TIP3     H1       HT       0.417000       1.00800           0
     22868 TIP3     4764     TIP3     H2       HT       0.417000       1.00800           0
     22869 TIP3     4765     TIP3     OH2      OT      -0.834000       15.9994           0
     22870 TIP3     4765     TIP3     H1       HT       0.417000       1.00800           0
     22871 TIP3     4765     TIP3     H2       HT       0.417000       1.00800           0
     22872 TIP3     4766     TIP3     OH2      OT      -0.834000       15.9994           0
     22873 TIP3     4766     TIP3     H1       HT       0.417000       1.00800           0
     22874 TIP3     4766     TIP3     H2       HT       0.417000       1.00800           0
     22875 TIP3     4767     TIP3     OH2      OT      -0.834000       15.9994           0
     22876 TIP3     4767     TIP3     H1       HT       0.417000       1.00800           0
     22877 TIP3     4767     TIP3     H2       HT       0.417000       1.00800           0
     22878 TIP3     4768     TIP3     OH2      OT      -0.834000       15.9994           0
     22879 TIP3     4768     TIP3     H1       HT       0.417000       1.00800           0
     22880 TIP3     4768     TIP3     H2       HT       0.417000       1.00800           0
     22881 TIP3     4769     TIP3     OH2      OT      -0.834000       15.9994           0
     22882 TIP3     4769     TIP3     H1       HT       0.417000       1.00800           0
     22883 TIP3     4769     TIP3     H2       HT       0.417000       1.00800           0
     22884 TIP3     4770     TIP3     OH2      OT      -0.834000       15.9994           0
     22885 TIP3     4770     TIP3     H1       HT       0.417000       1.00800           0
     22886 TIP3     4770     TIP3     H2       HT       0.417000       1.00800           0
     22887 TIP3     4771     TIP3     OH2      OT      -0.834000       15.9994           0
     22888 TIP3     4771     TIP3     H1       HT       0.417000       1.00800           0
     22889 TIP3     4771     TIP3     H2       HT       0.417000       1.00800           0
     22890 TIP3     4772     TIP3     OH2      OT      -0.834000       15.9994           0
     22891 TIP3     4772     TIP3     H1       HT       0.417000       1.00800           0
     22892 TIP3     4772     TIP3     H2       HT       0.417000       1.00800           0
     22893 TIP3     4773     TIP3     OH2      OT      -0.834000       15.9994           0
     22894 TIP3     4773     TIP3     H1       HT       0.417000       1.00800           0
     22895 TIP3     4773     TIP3     H2       HT       0.417000       1.00800           0
     22896 TIP3     4774     TIP3     OH2      OT      -0.834000       15.9994           0
     22897 TIP3     4774     TIP3     H1       HT       0.417000       1.00800           0
     22898 TIP3     4774     TIP3     H2       HT       0.417000       1.00800           0
     22899 TIP3     4775     TIP3     OH2      OT      -0.834000       15.9994           0
     22900 TIP3     4775     TIP3     H1       HT       0.417000       1.00800           0
     22901 TIP3     4775     TIP3     H2       HT       0.417000       1.00800           0
     22902 TIP3     4776     TIP3     OH2      OT      -0.834000       15.9994           0
     22903 TIP3     4776     TIP3     H1       HT       0.417000       1.00800           0
     22904 TIP3     4776     TIP3     H2       HT       0.417000       1.00800           0
     22905 TIP3     4777     TIP3     OH2      OT      -0.834000       15.9994           0
     22906 TIP3     4777     TIP3     H1       HT       0.417000       1.00800           0
     22907 TIP3     4777     TIP3     H2       HT       0.417000       1.00800           0
     22908 TIP3     4778     TIP3     OH2      OT      -0.834000       15.9994           0
     22909 TIP3     4778     TIP3     H1       HT       0.417000       1.00800           0
     22910 TIP3     4778     TIP3     H2       HT       0.417000       1.00800           0
     22911 TIP3     4779     TIP3     OH2      OT      -0.834000       15.9994           0
     22912 TIP3     4779     TIP3     H1       HT       0.417000       1.00800           0
     22913 TIP3     4779     TIP3     H2       HT       0.417000       1.00800           0
     22914 TIP3     4780     TIP3     OH2      OT      -0.834000       15.9994           0
     22915 TIP3     4780     TIP3     H1       HT       0.417000       1.00800           0
     22916 TIP3     4780     TIP3     H2       HT       0.417000       1.00800           0
     22917 TIP3     4781     TIP3     OH2      OT      -0.834000       15.9994           0
     22918 TIP3     4781     TIP3     H1       HT       0.417000       1.00800           0
     22919 TIP3     4781     TIP3     H2       HT       0.417000       1.00800           0
     22920 TIP3     4782     TIP3     OH2      OT      -0.834000       15.9994           0
     22921 TIP3     4782     TIP3     H1       HT       0.417000       1.00800           0
     22922 TIP3     4782     TIP3     H2       HT       0.417000       1.00800           0
     22923 TIP3     4783     TIP3     OH2      OT      -0.834000       15.9994           0
     22924 TIP3     4783     TIP3     H1       HT       0.417000       1.00800           0
     22925 TIP3     4783     TIP3     H2       HT       0.417000       1.00800           0
     22926 TIP3     4784     TIP3     OH2      OT      -0.834000       15.9994           0
     22927 TIP3     4784     TIP3     H1       HT       0.417000       1.00800           0
     22928 TIP3     4784     TIP3     H2       HT       0.417000       1.00800           0
     22929 TIP3     4785     TIP3     OH2      OT      -0.834000       15.9994           0
     22930 TIP3     4785     TIP3     H1       HT       0.417000       1.00800           0
     22931 TIP3     4785     TIP3     H2       HT       0.417000       1.00800           0
     22932 TIP3     4786     TIP3     OH2      OT      -0.834000       15.9994           0
     22933 TIP3     4786     TIP3     H1       HT       0.417000       1.00800           0
     22934 TIP3     4786     TIP3     H2       HT       0.417000       1.00800           0
     22935 TIP3     4787     TIP3     OH2      OT      -0.834000       15.9994           0
     22936 TIP3     4787     TIP3     H1       HT       0.417000       1.00800           0
     22937 TIP3     4787     TIP3     H2       HT       0.417000       1.00800           0
     22938 TIP3     4788     TIP3     OH2      OT      -0.834000       15.9994           0
     22939 TIP3     4788     TIP3     H1       HT       0.417000       1.00800           0
     22940 TIP3     4788     TIP3     H2       HT       0.417000       1.00800           0
     22941 TIP3     4789     TIP3     OH2      OT      -0.834000       15.9994           0
     22942 TIP3     4789     TIP3     H1       HT       0.417000       1.00800           0
     22943 TIP3     4789     TIP3     H2       HT       0.417000       1.00800           0
     22944 TIP3     4790     TIP3     OH2      OT      -0.834000       15.9994           0
     22945 TIP3     4790     TIP3     H1       HT       0.417000       1.00800           0
     22946 TIP3     4790     TIP3     H2       HT       0.417000       1.00800           0
     22947 TIP3     4791     TIP3     OH2      OT      -0.834000       15.9994           0
     22948 TIP3     4791     TIP3     H1       HT       0.417000       1.00800           0
     22949 TIP3     4791     TIP3     H2       HT       0.417000       1.00800           0
     22950 TIP3     4792     TIP3     OH2      OT      -0.834000       15.9994           0
     22951 TIP3     4792     TIP3     H1       HT       0.417000       1.00800           0
     22952 TIP3     4792     TIP3     H2       HT       0.417000       1.00800           0
     22953 TIP3     4793     TIP3     OH2      OT      -0.834000       15.9994           0
     22954 TIP3     4793     TIP3     H1       HT       0.417000       1.00800           0
     22955 TIP3     4793     TIP3     H2       HT       0.417000       1.00800           0
     22956 TIP3     4794     TIP3     OH2      OT      -0.834000       15.9994           0
     22957 TIP3     4794     TIP3     H1       HT       0.417000       1.00800           0
     22958 TIP3     4794     TIP3     H2       HT       0.417000       1.00800           0
     22959 TIP3     4795     TIP3     OH2      OT      -0.834000       15.9994           0
     22960 TIP3     4795     TIP3     H1       HT       0.417000       1.00800           0
     22961 TIP3     4795     TIP3     H2       HT       0.417000       1.00800           0
     22962 TIP3     4796     TIP3     OH2      OT      -0.834000       15.9994           0
     22963 TIP3     4796     TIP3     H1       HT       0.417000       1.00800           0
     22964 TIP3     4796     TIP3     H2       HT       0.417000       1.00800           0
     22965 TIP3     4797     TIP3     OH2      OT      -0.834000       15.9994           0
     22966 TIP3     4797     TIP3     H1       HT       0.417000       1.00800           0
     22967 TIP3     4797     TIP3     H2       HT       0.417000       1.00800           0
     22968 TIP3     4798     TIP3     OH2      OT      -0.834000       15.9994           0
     22969 TIP3     4798     TIP3     H1       HT       0.417000       1.00800           0
     22970 TIP3     4798     TIP3     H2       HT       0.417000       1.00800           0
     22971 TIP3     4799     TIP3     OH2      OT      -0.834000       15.9994           0
     22972 TIP3     4799     TIP3     H1       HT       0.417000       1.00800           0
     22973 TIP3     4799     TIP3     H2       HT       0.417000       1.00800           0
     22974 TIP3     4800     TIP3     OH2      OT      -0.834000       15.9994           0
     22975 TIP3     4800     TIP3     H1       HT       0.417000       1.00800           0
     22976 TIP3     4800     TIP3     H2       HT       0.417000       1.00800           0
     22977 TIP3     4801     TIP3     OH2      OT      -0.834000       15.9994           0
     22978 TIP3     4801     TIP3     H1       HT       0.417000       1.00800           0
     22979 TIP3     4801     TIP3     H2       HT       0.417000       1.00800           0
     22980 TIP3     4802     TIP3     OH2      OT      -0.834000       15.9994           0
     22981 TIP3     4802     TIP3     H1       HT       0.417000       1.00800           0
     22982 TIP3     4802     TIP3     H2       HT       0.417000       1.00800           0
     22983 TIP3     4803     TIP3     OH2      OT      -0.834000       15.9994           0
     22984 TIP3     4803     TIP3     H1       HT       0.417000       1.00800           0
     22985 TIP3     4803     TIP3     H2       HT       0.417000       1.00800           0
     22986 TIP3     4804     TIP3     OH2      OT      -0.834000       15.9994           0
     22987 TIP3     4804     TIP3     H1       HT       0.417000       1.00800           0
     22988 TIP3     4804     TIP3     H2       HT       0.417000       1.00800           0
     22989 TIP3     4805     TIP3     OH2      OT      -0.834000       15.9994           0
     22990 TIP3     4805     TIP3     H1       HT       0.417000       1.00800           0
     22991 TIP3     4805     TIP3     H2       HT       0.417000       1.00800           0
     22992 TIP3     4806     TIP3     OH2      OT      -0.834000       15.9994           0
     22993 TIP3     4806     TIP3     H1       HT       0.417000       1.00800           0
     22994 TIP3     4806     TIP3     H2       HT       0.417000       1.00800           0
     22995 TIP3     4807     TIP3     OH2      OT      -0.834000       15.9994           0
     22996 TIP3     4807     TIP3     H1       HT       0.417000       1.00800           0
     22997 TIP3     4807     TIP3     H2       HT       0.417000       1.00800           0
     22998 TIP3     4808     TIP3     OH2      OT      -0.834000       15.9994           0
     22999 TIP3     4808     TIP3     H1       HT       0.417000       1.00800           0
     23000 TIP3     4808     TIP3     H2       HT       0.417000       1.00800           0
     23001 TIP3     4809     TIP3     OH2      OT      -0.834000       15.9994           0
     23002 TIP3     4809     TIP3     H1       HT       0.417000       1.00800           0
     23003 TIP3     4809     TIP3     H2       HT       0.417000       1.00800           0
     23004 TIP3     4810     TIP3     OH2      OT      -0.834000       15.9994           0
     23005 TIP3     4810     TIP3     H1       HT       0.417000       1.00800           0
     23006 TIP3     4810     TIP3     H2       HT       0.417000       1.00800           0
     23007 TIP3     4811     TIP3     OH2      OT      -0.834000       15.9994           0
     23008 TIP3     4811     TIP3     H1       HT       0.417000       1.00800           0
     23009 TIP3     4811     TIP3     H2       HT       0.417000       1.00800           0
     23010 TIP3     4812     TIP3     OH2      OT      -0.834000       15.9994           0
     23011 TIP3     4812     TIP3     H1       HT       0.417000       1.00800           0
     23012 TIP3     4812     TIP3     H2       HT       0.417000       1.00800           0
     23013 TIP3     4813     TIP3     OH2      OT      -0.834000       15.9994           0
     23014 TIP3     4813     TIP3     H1       HT       0.417000       1.00800           0
     23015 TIP3     4813     TIP3     H2       HT       0.417000       1.00800           0
     23016 TIP3     4814     TIP3     OH2      OT      -0.834000       15.9994           0
     23017 TIP3     4814     TIP3     H1       HT       0.417000       1.00800           0
     23018 TIP3     4814     TIP3     H2       HT       0.417000       1.00800           0
     23019 TIP3     4815     TIP3     OH2      OT      -0.834000       15.9994           0
     23020 TIP3     4815     TIP3     H1       HT       0.417000       1.00800           0
     23021 TIP3     4815     TIP3     H2       HT       0.417000       1.00800           0
     23022 TIP3     4816     TIP3     OH2      OT      -0.834000       15.9994           0
     23023 TIP3     4816     TIP3     H1       HT       0.417000       1.00800           0
     23024 TIP3     4816     TIP3     H2       HT       0.417000       1.00800           0
     23025 TIP3     4817     TIP3     OH2      OT      -0.834000       15.9994           0
     23026 TIP3     4817     TIP3     H1       HT       0.417000       1.00800           0
     23027 TIP3     4817     TIP3     H2       HT       0.417000       1.00800           0
     23028 TIP3     4818     TIP3     OH2      OT      -0.834000       15.9994           0
     23029 TIP3     4818     TIP3     H1       HT       0.417000       1.00800           0
     23030 TIP3     4818     TIP3     H2       HT       0.417000       1.00800           0
     23031 TIP3     4819     TIP3     OH2      OT      -0.834000       15.9994           0
     23032 TIP3     4819     TIP3     H1       HT       0.417000       1.00800           0
     23033 TIP3     4819     TIP3     H2       HT       0.417000       1.00800           0
     23034 TIP3     4820     TIP3     OH2      OT      -0.834000       15.9994           0
     23035 TIP3     4820     TIP3     H1       HT       0.417000       1.00800           0
     23036 TIP3     4820     TIP3     H2       HT       0.417000       1.00800           0
     23037 TIP3     4821     TIP3     OH2      OT      -0.834000       15.9994           0
     23038 TIP3     4821     TIP3     H1       HT       0.417000       1.00800           0
     23039 TIP3     4821     TIP3     H2       HT       0.417000       1.00800           0
     23040 TIP3     4822     TIP3     OH2      OT      -0.834000       15.9994           0
     23041 TIP3     4822     TIP3     H1       HT       0.417000       1.00800           0
     23042 TIP3     4822     TIP3     H2       HT       0.417000       1.00800           0
     23043 TIP3     4823     TIP3     OH2      OT      -0.834000       15.9994           0
     23044 TIP3     4823     TIP3     H1       HT       0.417000       1.00800           0
     23045 TIP3     4823     TIP3     H2       HT       0.417000       1.00800           0
     23046 TIP3     4824     TIP3     OH2      OT      -0.834000       15.9994           0
     23047 TIP3     4824     TIP3     H1       HT       0.417000       1.00800           0
     23048 TIP3     4824     TIP3     H2       HT       0.417000       1.00800           0
     23049 TIP3     4825     TIP3     OH2      OT      -0.834000       15.9994           0
     23050 TIP3     4825     TIP3     H1       HT       0.417000       1.00800           0
     23051 TIP3     4825     TIP3     H2       HT       0.417000       1.00800           0
     23052 TIP3     4826     TIP3     OH2      OT      -0.834000       15.9994           0
     23053 TIP3     4826     TIP3     H1       HT       0.417000       1.00800           0
     23054 TIP3     4826     TIP3     H2       HT       0.417000       1.00800           0
     23055 TIP3     4827     TIP3     OH2      OT      -0.834000       15.9994           0
     23056 TIP3     4827     TIP3     H1       HT       0.417000       1.00800           0
     23057 TIP3     4827     TIP3     H2       HT       0.417000       1.00800           0
     23058 TIP3     4828     TIP3     OH2      OT      -0.834000       15.9994           0
     23059 TIP3     4828     TIP3     H1       HT       0.417000       1.00800           0
     23060 TIP3     4828     TIP3     H2       HT       0.417000       1.00800           0
     23061 TIP3     4829     TIP3     OH2      OT      -0.834000       15.9994           0
     23062 TIP3     4829     TIP3     H1       HT       0.417000       1.00800           0
     23063 TIP3     4829     TIP3     H2       HT       0.417000       1.00800           0
     23064 TIP3     4830     TIP3     OH2      OT      -0.834000       15.9994           0
     23065 TIP3     4830     TIP3     H1       HT       0.417000       1.00800           0
     23066 TIP3     4830     TIP3     H2       HT       0.417000       1.00800           0
     23067 TIP3     4831     TIP3     OH2      OT      -0.834000       15.9994           0
     23068 TIP3     4831     TIP3     H1       HT       0.417000       1.00800           0
     23069 TIP3     4831     TIP3     H2       HT       0.417000       1.00800           0
     23070 TIP3     4832     TIP3     OH2      OT      -0.834000       15.9994           0
     23071 TIP3     4832     TIP3     H1       HT       0.417000       1.00800           0
     23072 TIP3     4832     TIP3     H2       HT       0.417000       1.00800           0
     23073 TIP3     4833     TIP3     OH2      OT      -0.834000       15.9994           0
     23074 TIP3     4833     TIP3     H1       HT       0.417000       1.00800           0
     23075 TIP3     4833     TIP3     H2       HT       0.417000       1.00800           0
     23076 TIP3     4834     TIP3     OH2      OT      -0.834000       15.9994           0
     23077 TIP3     4834     TIP3     H1       HT       0.417000       1.00800           0
     23078 TIP3     4834     TIP3     H2       HT       0.417000       1.00800           0
     23079 TIP3     4835     TIP3     OH2      OT      -0.834000       15.9994           0
     23080 TIP3     4835     TIP3     H1       HT       0.417000       1.00800           0
     23081 TIP3     4835     TIP3     H2       HT       0.417000       1.00800           0
     23082 TIP3     4836     TIP3     OH2      OT      -0.834000       15.9994           0
     23083 TIP3     4836     TIP3     H1       HT       0.417000       1.00800           0
     23084 TIP3     4836     TIP3     H2       HT       0.417000       1.00800           0
     23085 TIP3     4837     TIP3     OH2      OT      -0.834000       15.9994           0
     23086 TIP3     4837     TIP3     H1       HT       0.417000       1.00800           0
     23087 TIP3     4837     TIP3     H2       HT       0.417000       1.00800           0
     23088 TIP3     4838     TIP3     OH2      OT      -0.834000       15.9994           0
     23089 TIP3     4838     TIP3     H1       HT       0.417000       1.00800           0
     23090 TIP3     4838     TIP3     H2       HT       0.417000       1.00800           0
     23091 TIP3     4839     TIP3     OH2      OT      -0.834000       15.9994           0
     23092 TIP3     4839     TIP3     H1       HT       0.417000       1.00800           0
     23093 TIP3     4839     TIP3     H2       HT       0.417000       1.00800           0
     23094 TIP3     4840     TIP3     OH2      OT      -0.834000       15.9994           0
     23095 TIP3     4840     TIP3     H1       HT       0.417000       1.00800           0
     23096 TIP3     4840     TIP3     H2       HT       0.417000       1.00800           0
     23097 TIP3     4841     TIP3     OH2      OT      -0.834000       15.9994           0
     23098 TIP3     4841     TIP3     H1       HT       0.417000       1.00800           0
     23099 TIP3     4841     TIP3     H2       HT       0.417000       1.00800           0
     23100 TIP3     4842     TIP3     OH2      OT      -0.834000       15.9994           0
     23101 TIP3     4842     TIP3     H1       HT       0.417000       1.00800           0
     23102 TIP3     4842     TIP3     H2       HT       0.417000       1.00800           0
     23103 TIP3     4843     TIP3     OH2      OT      -0.834000       15.9994           0
     23104 TIP3     4843     TIP3     H1       HT       0.417000       1.00800           0
     23105 TIP3     4843     TIP3     H2       HT       0.417000       1.00800           0
     23106 TIP3     4844     TIP3     OH2      OT      -0.834000       15.9994           0
     23107 TIP3     4844     TIP3     H1       HT       0.417000       1.00800           0
     23108 TIP3     4844     TIP3     H2       HT       0.417000       1.00800           0
     23109 TIP3     4845     TIP3     OH2      OT      -0.834000       15.9994           0
     23110 TIP3     4845     TIP3     H1       HT       0.417000       1.00800           0
     23111 TIP3     4845     TIP3     H2       HT       0.417000       1.00800           0
     23112 TIP3     4846     TIP3     OH2      OT      -0.834000       15.9994           0
     23113 TIP3     4846     TIP3     H1       HT       0.417000       1.00800           0
     23114 TIP3     4846     TIP3     H2       HT       0.417000       1.00800           0
     23115 TIP3     4847     TIP3     OH2      OT      -0.834000       15.9994           0
     23116 TIP3     4847     TIP3     H1       HT       0.417000       1.00800           0
     23117 TIP3     4847     TIP3     H2       HT       0.417000       1.00800           0
     23118 TIP3     4848     TIP3     OH2      OT      -0.834000       15.9994           0
     23119 TIP3     4848     TIP3     H1       HT       0.417000       1.00800           0
     23120 TIP3     4848     TIP3     H2       HT       0.417000       1.00800           0
     23121 TIP3     4849     TIP3     OH2      OT      -0.834000       15.9994           0
     23122 TIP3     4849     TIP3     H1       HT       0.417000       1.00800           0
     23123 TIP3     4849     TIP3     H2       HT       0.417000       1.00800           0
     23124 TIP3     4850     TIP3     OH2      OT      -0.834000       15.9994           0
     23125 TIP3     4850     TIP3     H1       HT       0.417000       1.00800           0
     23126 TIP3     4850     TIP3     H2       HT       0.417000       1.00800           0
     23127 TIP3     4851     TIP3     OH2      OT      -0.834000       15.9994           0
     23128 TIP3     4851     TIP3     H1       HT       0.417000       1.00800           0
     23129 TIP3     4851     TIP3     H2       HT       0.417000       1.00800           0
     23130 TIP3     4852     TIP3     OH2      OT      -0.834000       15.9994           0
     23131 TIP3     4852     TIP3     H1       HT       0.417000       1.00800           0
     23132 TIP3     4852     TIP3     H2       HT       0.417000       1.00800           0
     23133 TIP3     4853     TIP3     OH2      OT      -0.834000       15.9994           0
     23134 TIP3     4853     TIP3     H1       HT       0.417000       1.00800           0
     23135 TIP3     4853     TIP3     H2       HT       0.417000       1.00800           0
     23136 TIP3     4854     TIP3     OH2      OT      -0.834000       15.9994           0
     23137 TIP3     4854     TIP3     H1       HT       0.417000       1.00800           0
     23138 TIP3     4854     TIP3     H2       HT       0.417000       1.00800           0
     23139 TIP3     4855     TIP3     OH2      OT      -0.834000       15.9994           0
     23140 TIP3     4855     TIP3     H1       HT       0.417000       1.00800           0
     23141 TIP3     4855     TIP3     H2       HT       0.417000       1.00800           0
     23142 TIP3     4856     TIP3     OH2      OT      -0.834000       15.9994           0
     23143 TIP3     4856     TIP3     H1       HT       0.417000       1.00800           0
     23144 TIP3     4856     TIP3     H2       HT       0.417000       1.00800           0
     23145 TIP3     4857     TIP3     OH2      OT      -0.834000       15.9994           0
     23146 TIP3     4857     TIP3     H1       HT       0.417000       1.00800           0
     23147 TIP3     4857     TIP3     H2       HT       0.417000       1.00800           0
     23148 TIP3     4858     TIP3     OH2      OT      -0.834000       15.9994           0
     23149 TIP3     4858     TIP3     H1       HT       0.417000       1.00800           0
     23150 TIP3     4858     TIP3     H2       HT       0.417000       1.00800           0
     23151 TIP3     4859     TIP3     OH2      OT      -0.834000       15.9994           0
     23152 TIP3     4859     TIP3     H1       HT       0.417000       1.00800           0
     23153 TIP3     4859     TIP3     H2       HT       0.417000       1.00800           0
     23154 TIP3     4860     TIP3     OH2      OT      -0.834000       15.9994           0
     23155 TIP3     4860     TIP3     H1       HT       0.417000       1.00800           0
     23156 TIP3     4860     TIP3     H2       HT       0.417000       1.00800           0
     23157 TIP3     4861     TIP3     OH2      OT      -0.834000       15.9994           0
     23158 TIP3     4861     TIP3     H1       HT       0.417000       1.00800           0
     23159 TIP3     4861     TIP3     H2       HT       0.417000       1.00800           0
     23160 TIP3     4862     TIP3     OH2      OT      -0.834000       15.9994           0
     23161 TIP3     4862     TIP3     H1       HT       0.417000       1.00800           0
     23162 TIP3     4862     TIP3     H2       HT       0.417000       1.00800           0
     23163 TIP3     4863     TIP3     OH2      OT      -0.834000       15.9994           0
     23164 TIP3     4863     TIP3     H1       HT       0.417000       1.00800           0
     23165 TIP3     4863     TIP3     H2       HT       0.417000       1.00800           0
     23166 TIP3     4864     TIP3     OH2      OT      -0.834000       15.9994           0
     23167 TIP3     4864     TIP3     H1       HT       0.417000       1.00800           0
     23168 TIP3     4864     TIP3     H2       HT       0.417000       1.00800           0
     23169 TIP3     4865     TIP3     OH2      OT      -0.834000       15.9994           0
     23170 TIP3     4865     TIP3     H1       HT       0.417000       1.00800           0
     23171 TIP3     4865     TIP3     H2       HT       0.417000       1.00800           0
     23172 TIP3     4866     TIP3     OH2      OT      -0.834000       15.9994           0
     23173 TIP3     4866     TIP3     H1       HT       0.417000       1.00800           0
     23174 TIP3     4866     TIP3     H2       HT       0.417000       1.00800           0
     23175 TIP3     4867     TIP3     OH2      OT      -0.834000       15.9994           0
     23176 TIP3     4867     TIP3     H1       HT       0.417000       1.00800           0
     23177 TIP3     4867     TIP3     H2       HT       0.417000       1.00800           0
     23178 TIP3     4868     TIP3     OH2      OT      -0.834000       15.9994           0
     23179 TIP3     4868     TIP3     H1       HT       0.417000       1.00800           0
     23180 TIP3     4868     TIP3     H2       HT       0.417000       1.00800           0
     23181 TIP3     4869     TIP3     OH2      OT      -0.834000       15.9994           0
     23182 TIP3     4869     TIP3     H1       HT       0.417000       1.00800           0
     23183 TIP3     4869     TIP3     H2       HT       0.417000       1.00800           0
     23184 TIP3     4870     TIP3     OH2      OT      -0.834000       15.9994           0
     23185 TIP3     4870     TIP3     H1       HT       0.417000       1.00800           0
     23186 TIP3     4870     TIP3     H2       HT       0.417000       1.00800           0
     23187 TIP3     4871     TIP3     OH2      OT      -0.834000       15.9994           0
     23188 TIP3     4871     TIP3     H1       HT       0.417000       1.00800           0
     23189 TIP3     4871     TIP3     H2       HT       0.417000       1.00800           0
     23190 TIP3     4872     TIP3     OH2      OT      -0.834000       15.9994           0
     23191 TIP3     4872     TIP3     H1       HT       0.417000       1.00800           0
     23192 TIP3     4872     TIP3     H2       HT       0.417000       1.00800           0
     23193 TIP3     4873     TIP3     OH2      OT      -0.834000       15.9994           0
     23194 TIP3     4873     TIP3     H1       HT       0.417000       1.00800           0
     23195 TIP3     4873     TIP3     H2       HT       0.417000       1.00800           0
     23196 TIP3     4874     TIP3     OH2      OT      -0.834000       15.9994           0
     23197 TIP3     4874     TIP3     H1       HT       0.417000       1.00800           0
     23198 TIP3     4874     TIP3     H2       HT       0.417000       1.00800           0
     23199 TIP3     4875     TIP3     OH2      OT      -0.834000       15.9994           0
     23200 TIP3     4875     TIP3     H1       HT       0.417000       1.00800           0
     23201 TIP3     4875     TIP3     H2       HT       0.417000       1.00800           0
     23202 TIP3     4876     TIP3     OH2      OT      -0.834000       15.9994           0
     23203 TIP3     4876     TIP3     H1       HT       0.417000       1.00800           0
     23204 TIP3     4876     TIP3     H2       HT       0.417000       1.00800           0
     23205 TIP3     4877     TIP3     OH2      OT      -0.834000       15.9994           0
     23206 TIP3     4877     TIP3     H1       HT       0.417000       1.00800           0
     23207 TIP3     4877     TIP3     H2       HT       0.417000       1.00800           0
     23208 TIP3     4878     TIP3     OH2      OT      -0.834000       15.9994           0
     23209 TIP3     4878     TIP3     H1       HT       0.417000       1.00800           0
     23210 TIP3     4878     TIP3     H2       HT       0.417000       1.00800           0
     23211 TIP3     4879     TIP3     OH2      OT      -0.834000       15.9994           0
     23212 TIP3     4879     TIP3     H1       HT       0.417000       1.00800           0
     23213 TIP3     4879     TIP3     H2       HT       0.417000       1.00800           0
     23214 TIP3     4880     TIP3     OH2      OT      -0.834000       15.9994           0
     23215 TIP3     4880     TIP3     H1       HT       0.417000       1.00800           0
     23216 TIP3     4880     TIP3     H2       HT       0.417000       1.00800           0
     23217 TIP3     4881     TIP3     OH2      OT      -0.834000       15.9994           0
     23218 TIP3     4881     TIP3     H1       HT       0.417000       1.00800           0
     23219 TIP3     4881     TIP3     H2       HT       0.417000       1.00800           0
     23220 TIP3     4882     TIP3     OH2      OT      -0.834000       15.9994           0
     23221 TIP3     4882     TIP3     H1       HT       0.417000       1.00800           0
     23222 TIP3     4882     TIP3     H2       HT       0.417000       1.00800           0
     23223 TIP3     4883     TIP3     OH2      OT      -0.834000       15.9994           0
     23224 TIP3     4883     TIP3     H1       HT       0.417000       1.00800           0
     23225 TIP3     4883     TIP3     H2       HT       0.417000       1.00800           0
     23226 TIP3     4884     TIP3     OH2      OT      -0.834000       15.9994           0
     23227 TIP3     4884     TIP3     H1       HT       0.417000       1.00800           0
     23228 TIP3     4884     TIP3     H2       HT       0.417000       1.00800           0
     23229 TIP3     4885     TIP3     OH2      OT      -0.834000       15.9994           0
     23230 TIP3     4885     TIP3     H1       HT       0.417000       1.00800           0
     23231 TIP3     4885     TIP3     H2       HT       0.417000       1.00800           0
     23232 TIP3     4886     TIP3     OH2      OT      -0.834000       15.9994           0
     23233 TIP3     4886     TIP3     H1       HT       0.417000       1.00800           0
     23234 TIP3     4886     TIP3     H2       HT       0.417000       1.00800           0
     23235 TIP3     4887     TIP3     OH2      OT      -0.834000       15.9994           0
     23236 TIP3     4887     TIP3     H1       HT       0.417000       1.00800           0
     23237 TIP3     4887     TIP3     H2       HT       0.417000       1.00800           0
     23238 TIP3     4888     TIP3     OH2      OT      -0.834000       15.9994           0
     23239 TIP3     4888     TIP3     H1       HT       0.417000       1.00800           0
     23240 TIP3     4888     TIP3     H2       HT       0.417000       1.00800           0
     23241 TIP3     4889     TIP3     OH2      OT      -0.834000       15.9994           0
     23242 TIP3     4889     TIP3     H1       HT       0.417000       1.00800           0
     23243 TIP3     4889     TIP3     H2       HT       0.417000       1.00800           0
     23244 TIP3     4890     TIP3     OH2      OT      -0.834000       15.9994           0
     23245 TIP3     4890     TIP3     H1       HT       0.417000       1.00800           0
     23246 TIP3     4890     TIP3     H2       HT       0.417000       1.00800           0
     23247 TIP3     4891     TIP3     OH2      OT      -0.834000       15.9994           0
     23248 TIP3     4891     TIP3     H1       HT       0.417000       1.00800           0
     23249 TIP3     4891     TIP3     H2       HT       0.417000       1.00800           0
     23250 TIP3     4892     TIP3     OH2      OT      -0.834000       15.9994           0
     23251 TIP3     4892     TIP3     H1       HT       0.417000       1.00800           0
     23252 TIP3     4892     TIP3     H2       HT       0.417000       1.00800           0
     23253 TIP3     4893     TIP3     OH2      OT      -0.834000       15.9994           0
     23254 TIP3     4893     TIP3     H1       HT       0.417000       1.00800           0
     23255 TIP3     4893     TIP3     H2       HT       0.417000       1.00800           0
     23256 TIP3     4894     TIP3     OH2      OT      -0.834000       15.9994           0
     23257 TIP3     4894     TIP3     H1       HT       0.417000       1.00800           0
     23258 TIP3     4894     TIP3     H2       HT       0.417000       1.00800           0
     23259 TIP3     4895     TIP3     OH2      OT      -0.834000       15.9994           0
     23260 TIP3     4895     TIP3     H1       HT       0.417000       1.00800           0
     23261 TIP3     4895     TIP3     H2       HT       0.417000       1.00800           0
     23262 TIP3     4896     TIP3     OH2      OT      -0.834000       15.9994           0
     23263 TIP3     4896     TIP3     H1       HT       0.417000       1.00800           0
     23264 TIP3     4896     TIP3     H2       HT       0.417000       1.00800           0
     23265 TIP3     4897     TIP3     OH2      OT      -0.834000       15.9994           0
     23266 TIP3     4897     TIP3     H1       HT       0.417000       1.00800           0
     23267 TIP3     4897     TIP3     H2       HT       0.417000       1.00800           0
     23268 TIP3     4898     TIP3     OH2      OT      -0.834000       15.9994           0
     23269 TIP3     4898     TIP3     H1       HT       0.417000       1.00800           0
     23270 TIP3     4898     TIP3     H2       HT       0.417000       1.00800           0
     23271 TIP3     4899     TIP3     OH2      OT      -0.834000       15.9994           0
     23272 TIP3     4899     TIP3     H1       HT       0.417000       1.00800           0
     23273 TIP3     4899     TIP3     H2       HT       0.417000       1.00800           0
     23274 TIP3     4900     TIP3     OH2      OT      -0.834000       15.9994           0
     23275 TIP3     4900     TIP3     H1       HT       0.417000       1.00800           0
     23276 TIP3     4900     TIP3     H2       HT       0.417000       1.00800           0
     23277 TIP3     4901     TIP3     OH2      OT      -0.834000       15.9994           0
     23278 TIP3     4901     TIP3     H1       HT       0.417000       1.00800           0
     23279 TIP3     4901     TIP3     H2       HT       0.417000       1.00800           0
     23280 TIP3     4902     TIP3     OH2      OT      -0.834000       15.9994           0
     23281 TIP3     4902     TIP3     H1       HT       0.417000       1.00800           0
     23282 TIP3     4902     TIP3     H2       HT       0.417000       1.00800           0
     23283 TIP3     4903     TIP3     OH2      OT      -0.834000       15.9994           0
     23284 TIP3     4903     TIP3     H1       HT       0.417000       1.00800           0
     23285 TIP3     4903     TIP3     H2       HT       0.417000       1.00800           0
     23286 TIP3     4904     TIP3     OH2      OT      -0.834000       15.9994           0
     23287 TIP3     4904     TIP3     H1       HT       0.417000       1.00800           0
     23288 TIP3     4904     TIP3     H2       HT       0.417000       1.00800           0
     23289 TIP3     4905     TIP3     OH2      OT      -0.834000       15.9994           0
     23290 TIP3     4905     TIP3     H1       HT       0.417000       1.00800           0
     23291 TIP3     4905     TIP3     H2       HT       0.417000       1.00800           0
     23292 TIP3     4906     TIP3     OH2      OT      -0.834000       15.9994           0
     23293 TIP3     4906     TIP3     H1       HT       0.417000       1.00800           0
     23294 TIP3     4906     TIP3     H2       HT       0.417000       1.00800           0
     23295 TIP3     4907     TIP3     OH2      OT      -0.834000       15.9994           0
     23296 TIP3     4907     TIP3     H1       HT       0.417000       1.00800           0
     23297 TIP3     4907     TIP3     H2       HT       0.417000       1.00800           0
     23298 TIP3     4908     TIP3     OH2      OT      -0.834000       15.9994           0
     23299 TIP3     4908     TIP3     H1       HT       0.417000       1.00800           0
     23300 TIP3     4908     TIP3     H2       HT       0.417000       1.00800           0
     23301 TIP3     4909     TIP3     OH2      OT      -0.834000       15.9994           0
     23302 TIP3     4909     TIP3     H1       HT       0.417000       1.00800           0
     23303 TIP3     4909     TIP3     H2       HT       0.417000       1.00800           0
     23304 TIP3     4910     TIP3     OH2      OT      -0.834000       15.9994           0
     23305 TIP3     4910     TIP3     H1       HT       0.417000       1.00800           0
     23306 TIP3     4910     TIP3     H2       HT       0.417000       1.00800           0
     23307 TIP3     4911     TIP3     OH2      OT      -0.834000       15.9994           0
     23308 TIP3     4911     TIP3     H1       HT       0.417000       1.00800           0
     23309 TIP3     4911     TIP3     H2       HT       0.417000       1.00800           0
     23310 TIP3     4912     TIP3     OH2      OT      -0.834000       15.9994           0
     23311 TIP3     4912     TIP3     H1       HT       0.417000       1.00800           0
     23312 TIP3     4912     TIP3     H2       HT       0.417000       1.00800           0
     23313 TIP3     4913     TIP3     OH2      OT      -0.834000       15.9994           0
     23314 TIP3     4913     TIP3     H1       HT       0.417000       1.00800           0
     23315 TIP3     4913     TIP3     H2       HT       0.417000       1.00800           0
     23316 TIP3     4914     TIP3     OH2      OT      -0.834000       15.9994           0
     23317 TIP3     4914     TIP3     H1       HT       0.417000       1.00800           0
     23318 TIP3     4914     TIP3     H2       HT       0.417000       1.00800           0
     23319 TIP3     4915     TIP3     OH2      OT      -0.834000       15.9994           0
     23320 TIP3     4915     TIP3     H1       HT       0.417000       1.00800           0
     23321 TIP3     4915     TIP3     H2       HT       0.417000       1.00800           0
     23322 TIP3     4916     TIP3     OH2      OT      -0.834000       15.9994           0
     23323 TIP3     4916     TIP3     H1       HT       0.417000       1.00800           0
     23324 TIP3     4916     TIP3     H2       HT       0.417000       1.00800           0
     23325 TIP3     4917     TIP3     OH2      OT      -0.834000       15.9994           0
     23326 TIP3     4917     TIP3     H1       HT       0.417000       1.00800           0
     23327 TIP3     4917     TIP3     H2       HT       0.417000       1.00800           0
     23328 TIP3     4918     TIP3     OH2      OT      -0.834000       15.9994           0
     23329 TIP3     4918     TIP3     H1       HT       0.417000       1.00800           0
     23330 TIP3     4918     TIP3     H2       HT       0.417000       1.00800           0
     23331 TIP3     4919     TIP3     OH2      OT      -0.834000       15.9994           0
     23332 TIP3     4919     TIP3     H1       HT       0.417000       1.00800           0
     23333 TIP3     4919     TIP3     H2       HT       0.417000       1.00800           0
     23334 TIP3     4920     TIP3     OH2      OT      -0.834000       15.9994           0
     23335 TIP3     4920     TIP3     H1       HT       0.417000       1.00800           0
     23336 TIP3     4920     TIP3     H2       HT       0.417000       1.00800           0
     23337 TIP3     4921     TIP3     OH2      OT      -0.834000       15.9994           0
     23338 TIP3     4921     TIP3     H1       HT       0.417000       1.00800           0
     23339 TIP3     4921     TIP3     H2       HT       0.417000       1.00800           0
     23340 TIP3     4922     TIP3     OH2      OT      -0.834000       15.9994           0
     23341 TIP3     4922     TIP3     H1       HT       0.417000       1.00800           0
     23342 TIP3     4922     TIP3     H2       HT       0.417000       1.00800           0
     23343 TIP3     4923     TIP3     OH2      OT      -0.834000       15.9994           0
     23344 TIP3     4923     TIP3     H1       HT       0.417000       1.00800           0
     23345 TIP3     4923     TIP3     H2       HT       0.417000       1.00800           0
     23346 TIP3     4924     TIP3     OH2      OT      -0.834000       15.9994           0
     23347 TIP3     4924     TIP3     H1       HT       0.417000       1.00800           0
     23348 TIP3     4924     TIP3     H2       HT       0.417000       1.00800           0
     23349 TIP3     4925     TIP3     OH2      OT      -0.834000       15.9994           0
     23350 TIP3     4925     TIP3     H1       HT       0.417000       1.00800           0
     23351 TIP3     4925     TIP3     H2       HT       0.417000       1.00800           0
     23352 TIP3     4926     TIP3     OH2      OT      -0.834000       15.9994           0
     23353 TIP3     4926     TIP3     H1       HT       0.417000       1.00800           0
     23354 TIP3     4926     TIP3     H2       HT       0.417000       1.00800           0
     23355 TIP3     4927     TIP3     OH2      OT      -0.834000       15.9994           0
     23356 TIP3     4927     TIP3     H1       HT       0.417000       1.00800           0
     23357 TIP3     4927     TIP3     H2       HT       0.417000       1.00800           0
     23358 TIP3     4928     TIP3     OH2      OT      -0.834000       15.9994           0
     23359 TIP3     4928     TIP3     H1       HT       0.417000       1.00800           0
     23360 TIP3     4928     TIP3     H2       HT       0.417000       1.00800           0
     23361 TIP3     4929     TIP3     OH2      OT      -0.834000       15.9994           0
     23362 TIP3     4929     TIP3     H1       HT       0.417000       1.00800           0
     23363 TIP3     4929     TIP3     H2       HT       0.417000       1.00800           0
     23364 TIP3     4930     TIP3     OH2      OT      -0.834000       15.9994           0
     23365 TIP3     4930     TIP3     H1       HT       0.417000       1.00800           0
     23366 TIP3     4930     TIP3     H2       HT       0.417000       1.00800           0
     23367 TIP3     4931     TIP3     OH2      OT      -0.834000       15.9994           0
     23368 TIP3     4931     TIP3     H1       HT       0.417000       1.00800           0
     23369 TIP3     4931     TIP3     H2       HT       0.417000       1.00800           0
     23370 TIP3     4932     TIP3     OH2      OT      -0.834000       15.9994           0
     23371 TIP3     4932     TIP3     H1       HT       0.417000       1.00800           0
     23372 TIP3     4932     TIP3     H2       HT       0.417000       1.00800           0
     23373 TIP3     4933     TIP3     OH2      OT      -0.834000       15.9994           0
     23374 TIP3     4933     TIP3     H1       HT       0.417000       1.00800           0
     23375 TIP3     4933     TIP3     H2       HT       0.417000       1.00800           0
     23376 TIP3     4934     TIP3     OH2      OT      -0.834000       15.9994           0
     23377 TIP3     4934     TIP3     H1       HT       0.417000       1.00800           0
     23378 TIP3     4934     TIP3     H2       HT       0.417000       1.00800           0
     23379 TIP3     4935     TIP3     OH2      OT      -0.834000       15.9994           0
     23380 TIP3     4935     TIP3     H1       HT       0.417000       1.00800           0
     23381 TIP3     4935     TIP3     H2       HT       0.417000       1.00800           0
     23382 TIP3     4936     TIP3     OH2      OT      -0.834000       15.9994           0
     23383 TIP3     4936     TIP3     H1       HT       0.417000       1.00800           0
     23384 TIP3     4936     TIP3     H2       HT       0.417000       1.00800           0
     23385 TIP3     4937     TIP3     OH2      OT      -0.834000       15.9994           0
     23386 TIP3     4937     TIP3     H1       HT       0.417000       1.00800           0
     23387 TIP3     4937     TIP3     H2       HT       0.417000       1.00800           0
     23388 TIP3     4938     TIP3     OH2      OT      -0.834000       15.9994           0
     23389 TIP3     4938     TIP3     H1       HT       0.417000       1.00800           0
     23390 TIP3     4938     TIP3     H2       HT       0.417000       1.00800           0
     23391 TIP3     4939     TIP3     OH2      OT      -0.834000       15.9994           0
     23392 TIP3     4939     TIP3     H1       HT       0.417000       1.00800           0
     23393 TIP3     4939     TIP3     H2       HT       0.417000       1.00800           0
     23394 TIP3     4940     TIP3     OH2      OT      -0.834000       15.9994           0
     23395 TIP3     4940     TIP3     H1       HT       0.417000       1.00800           0
     23396 TIP3     4940     TIP3     H2       HT       0.417000       1.00800           0
     23397 TIP3     4941     TIP3     OH2      OT      -0.834000       15.9994           0
     23398 TIP3     4941     TIP3     H1       HT       0.417000       1.00800           0
     23399 TIP3     4941     TIP3     H2       HT       0.417000       1.00800           0
     23400 TIP3     4942     TIP3     OH2      OT      -0.834000       15.9994           0
     23401 TIP3     4942     TIP3     H1       HT       0.417000       1.00800           0
     23402 TIP3     4942     TIP3     H2       HT       0.417000       1.00800           0
     23403 TIP3     4943     TIP3     OH2      OT      -0.834000       15.9994           0
     23404 TIP3     4943     TIP3     H1       HT       0.417000       1.00800           0
     23405 TIP3     4943     TIP3     H2       HT       0.417000       1.00800           0
     23406 TIP3     4944     TIP3     OH2      OT      -0.834000       15.9994           0
     23407 TIP3     4944     TIP3     H1       HT       0.417000       1.00800           0
     23408 TIP3     4944     TIP3     H2       HT       0.417000       1.00800           0
     23409 TIP3     4945     TIP3     OH2      OT      -0.834000       15.9994           0
     23410 TIP3     4945     TIP3     H1       HT       0.417000       1.00800           0
     23411 TIP3     4945     TIP3     H2       HT       0.417000       1.00800           0
     23412 TIP3     4946     TIP3     OH2      OT      -0.834000       15.9994           0
     23413 TIP3     4946     TIP3     H1       HT       0.417000       1.00800           0
     23414 TIP3     4946     TIP3     H2       HT       0.417000       1.00800           0
     23415 TIP3     4947     TIP3     OH2      OT      -0.834000       15.9994           0
     23416 TIP3     4947     TIP3     H1       HT       0.417000       1.00800           0
     23417 TIP3     4947     TIP3     H2       HT       0.417000       1.00800           0
     23418 TIP3     4948     TIP3     OH2      OT      -0.834000       15.9994           0
     23419 TIP3     4948     TIP3     H1       HT       0.417000       1.00800           0
     23420 TIP3     4948     TIP3     H2       HT       0.417000       1.00800           0
     23421 TIP3     4949     TIP3     OH2      OT      -0.834000       15.9994           0
     23422 TIP3     4949     TIP3     H1       HT       0.417000       1.00800           0
     23423 TIP3     4949     TIP3     H2       HT       0.417000       1.00800           0
     23424 TIP3     4950     TIP3     OH2      OT      -0.834000       15.9994           0
     23425 TIP3     4950     TIP3     H1       HT       0.417000       1.00800           0
     23426 TIP3     4950     TIP3     H2       HT       0.417000       1.00800           0
     23427 TIP3     4951     TIP3     OH2      OT      -0.834000       15.9994           0
     23428 TIP3     4951     TIP3     H1       HT       0.417000       1.00800           0
     23429 TIP3     4951     TIP3     H2       HT       0.417000       1.00800           0
     23430 TIP3     4952     TIP3     OH2      OT      -0.834000       15.9994           0
     23431 TIP3     4952     TIP3     H1       HT       0.417000       1.00800           0
     23432 TIP3     4952     TIP3     H2       HT       0.417000       1.00800           0
     23433 TIP3     4953     TIP3     OH2      OT      -0.834000       15.9994           0
     23434 TIP3     4953     TIP3     H1       HT       0.417000       1.00800           0
     23435 TIP3     4953     TIP3     H2       HT       0.417000       1.00800           0
     23436 TIP3     4954     TIP3     OH2      OT      -0.834000       15.9994           0
     23437 TIP3     4954     TIP3     H1       HT       0.417000       1.00800           0
     23438 TIP3     4954     TIP3     H2       HT       0.417000       1.00800           0
     23439 TIP3     4955     TIP3     OH2      OT      -0.834000       15.9994           0
     23440 TIP3     4955     TIP3     H1       HT       0.417000       1.00800           0
     23441 TIP3     4955     TIP3     H2       HT       0.417000       1.00800           0
     23442 TIP3     4956     TIP3     OH2      OT      -0.834000       15.9994           0
     23443 TIP3     4956     TIP3     H1       HT       0.417000       1.00800           0
     23444 TIP3     4956     TIP3     H2       HT       0.417000       1.00800           0
     23445 TIP3     4957     TIP3     OH2      OT      -0.834000       15.9994           0
     23446 TIP3     4957     TIP3     H1       HT       0.417000       1.00800           0
     23447 TIP3     4957     TIP3     H2       HT       0.417000       1.00800           0
     23448 TIP3     4958     TIP3     OH2      OT      -0.834000       15.9994           0
     23449 TIP3     4958     TIP3     H1       HT       0.417000       1.00800           0
     23450 TIP3     4958     TIP3     H2       HT       0.417000       1.00800           0
     23451 TIP3     4959     TIP3     OH2      OT      -0.834000       15.9994           0
     23452 TIP3     4959     TIP3     H1       HT       0.417000       1.00800           0
     23453 TIP3     4959     TIP3     H2       HT       0.417000       1.00800           0
     23454 TIP3     4960     TIP3     OH2      OT      -0.834000       15.9994           0
     23455 TIP3     4960     TIP3     H1       HT       0.417000       1.00800           0
     23456 TIP3     4960     TIP3     H2       HT       0.417000       1.00800           0
     23457 TIP3     4961     TIP3     OH2      OT      -0.834000       15.9994           0
     23458 TIP3     4961     TIP3     H1       HT       0.417000       1.00800           0
     23459 TIP3     4961     TIP3     H2       HT       0.417000       1.00800           0
     23460 TIP3     4962     TIP3     OH2      OT      -0.834000       15.9994           0
     23461 TIP3     4962     TIP3     H1       HT       0.417000       1.00800           0
     23462 TIP3     4962     TIP3     H2       HT       0.417000       1.00800           0
     23463 TIP3     4963     TIP3     OH2      OT      -0.834000       15.9994           0
     23464 TIP3     4963     TIP3     H1       HT       0.417000       1.00800           0
     23465 TIP3     4963     TIP3     H2       HT       0.417000       1.00800           0
     23466 TIP3     4964     TIP3     OH2      OT      -0.834000       15.9994           0
     23467 TIP3     4964     TIP3     H1       HT       0.417000       1.00800           0
     23468 TIP3     4964     TIP3     H2       HT       0.417000       1.00800           0
     23469 TIP3     4965     TIP3     OH2      OT      -0.834000       15.9994           0
     23470 TIP3     4965     TIP3     H1       HT       0.417000       1.00800           0
     23471 TIP3     4965     TIP3     H2       HT       0.417000       1.00800           0
     23472 TIP3     4966     TIP3     OH2      OT      -0.834000       15.9994           0
     23473 TIP3     4966     TIP3     H1       HT       0.417000       1.00800           0
     23474 TIP3     4966     TIP3     H2       HT       0.417000       1.00800           0
     23475 TIP3     4967     TIP3     OH2      OT      -0.834000       15.9994           0
     23476 TIP3     4967     TIP3     H1       HT       0.417000       1.00800           0
     23477 TIP3     4967     TIP3     H2       HT       0.417000       1.00800           0
     23478 TIP3     4968     TIP3     OH2      OT      -0.834000       15.9994           0
     23479 TIP3     4968     TIP3     H1       HT       0.417000       1.00800           0
     23480 TIP3     4968     TIP3     H2       HT       0.417000       1.00800           0
     23481 TIP3     4969     TIP3     OH2      OT      -0.834000       15.9994           0
     23482 TIP3     4969     TIP3     H1       HT       0.417000       1.00800           0
     23483 TIP3     4969     TIP3     H2       HT       0.417000       1.00800           0
     23484 TIP3     4970     TIP3     OH2      OT      -0.834000       15.9994           0
     23485 TIP3     4970     TIP3     H1       HT       0.417000       1.00800           0
     23486 TIP3     4970     TIP3     H2       HT       0.417000       1.00800           0
     23487 TIP3     4971     TIP3     OH2      OT      -0.834000       15.9994           0
     23488 TIP3     4971     TIP3     H1       HT       0.417000       1.00800           0
     23489 TIP3     4971     TIP3     H2       HT       0.417000       1.00800           0
     23490 TIP3     4972     TIP3     OH2      OT      -0.834000       15.9994           0
     23491 TIP3     4972     TIP3     H1       HT       0.417000       1.00800           0
     23492 TIP3     4972     TIP3     H2       HT       0.417000       1.00800           0
     23493 TIP3     4973     TIP3     OH2      OT      -0.834000       15.9994           0
     23494 TIP3     4973     TIP3     H1       HT       0.417000       1.00800           0
     23495 TIP3     4973     TIP3     H2       HT       0.417000       1.00800           0
     23496 TIP3     4974     TIP3     OH2      OT      -0.834000       15.9994           0
     23497 TIP3     4974     TIP3     H1       HT       0.417000       1.00800           0
     23498 TIP3     4974     TIP3     H2       HT       0.417000       1.00800           0
     23499 TIP3     4975     TIP3     OH2      OT      -0.834000       15.9994           0
     23500 TIP3     4975     TIP3     H1       HT       0.417000       1.00800           0
     23501 TIP3     4975     TIP3     H2       HT       0.417000       1.00800           0
     23502 TIP3     4976     TIP3     OH2      OT      -0.834000       15.9994           0
     23503 TIP3     4976     TIP3     H1       HT       0.417000       1.00800           0
     23504 TIP3     4976     TIP3     H2       HT       0.417000       1.00800           0
     23505 TIP3     4977     TIP3     OH2      OT      -0.834000       15.9994           0
     23506 TIP3     4977     TIP3     H1       HT       0.417000       1.00800           0
     23507 TIP3     4977     TIP3     H2       HT       0.417000       1.00800           0
     23508 TIP3     4978     TIP3     OH2      OT      -0.834000       15.9994           0
     23509 TIP3     4978     TIP3     H1       HT       0.417000       1.00800           0
     23510 TIP3     4978     TIP3     H2       HT       0.417000       1.00800           0
     23511 TIP3     4979     TIP3     OH2      OT      -0.834000       15.9994           0
     23512 TIP3     4979     TIP3     H1       HT       0.417000       1.00800           0
     23513 TIP3     4979     TIP3     H2       HT       0.417000       1.00800           0
     23514 TIP3     4980     TIP3     OH2      OT      -0.834000       15.9994           0
     23515 TIP3     4980     TIP3     H1       HT       0.417000       1.00800           0
     23516 TIP3     4980     TIP3     H2       HT       0.417000       1.00800           0
     23517 TIP3     4981     TIP3     OH2      OT      -0.834000       15.9994           0
     23518 TIP3     4981     TIP3     H1       HT       0.417000       1.00800           0
     23519 TIP3     4981     TIP3     H2       HT       0.417000       1.00800           0
     23520 TIP3     4982     TIP3     OH2      OT      -0.834000       15.9994           0
     23521 TIP3     4982     TIP3     H1       HT       0.417000       1.00800           0
     23522 TIP3     4982     TIP3     H2       HT       0.417000       1.00800           0
     23523 TIP3     4983     TIP3     OH2      OT      -0.834000       15.9994           0
     23524 TIP3     4983     TIP3     H1       HT       0.417000       1.00800           0
     23525 TIP3     4983     TIP3     H2       HT       0.417000       1.00800           0
     23526 TIP3     4984     TIP3     OH2      OT      -0.834000       15.9994           0
     23527 TIP3     4984     TIP3     H1       HT       0.417000       1.00800           0
     23528 TIP3     4984     TIP3     H2       HT       0.417000       1.00800           0
     23529 TIP3     4985     TIP3     OH2      OT      -0.834000       15.9994           0
     23530 TIP3     4985     TIP3     H1       HT       0.417000       1.00800           0
     23531 TIP3     4985     TIP3     H2       HT       0.417000       1.00800           0
     23532 TIP3     4986     TIP3     OH2      OT      -0.834000       15.9994           0
     23533 TIP3     4986     TIP3     H1       HT       0.417000       1.00800           0
     23534 TIP3     4986     TIP3     H2       HT       0.417000       1.00800           0
     23535 TIP3     4987     TIP3     OH2      OT      -0.834000       15.9994           0
     23536 TIP3     4987     TIP3     H1       HT       0.417000       1.00800           0
     23537 TIP3     4987     TIP3     H2       HT       0.417000       1.00800           0
     23538 TIP3     4988     TIP3     OH2      OT      -0.834000       15.9994           0
     23539 TIP3     4988     TIP3     H1       HT       0.417000       1.00800           0
     23540 TIP3     4988     TIP3     H2       HT       0.417000       1.00800           0
     23541 TIP3     4989     TIP3     OH2      OT      -0.834000       15.9994           0
     23542 TIP3     4989     TIP3     H1       HT       0.417000       1.00800           0
     23543 TIP3     4989     TIP3     H2       HT       0.417000       1.00800           0
     23544 TIP3     4990     TIP3     OH2      OT      -0.834000       15.9994           0
     23545 TIP3     4990     TIP3     H1       HT       0.417000       1.00800           0
     23546 TIP3     4990     TIP3     H2       HT       0.417000       1.00800           0
     23547 TIP3     4991     TIP3     OH2      OT      -0.834000       15.9994           0
     23548 TIP3     4991     TIP3     H1       HT       0.417000       1.00800           0
     23549 TIP3     4991     TIP3     H2       HT       0.417000       1.00800           0
     23550 TIP3     4992     TIP3     OH2      OT      -0.834000       15.9994           0
     23551 TIP3     4992     TIP3     H1       HT       0.417000       1.00800           0
     23552 TIP3     4992     TIP3     H2       HT       0.417000       1.00800           0
     23553 TIP3     4993     TIP3     OH2      OT      -0.834000       15.9994           0
     23554 TIP3     4993     TIP3     H1       HT       0.417000       1.00800           0
     23555 TIP3     4993     TIP3     H2       HT       0.417000       1.00800           0
     23556 TIP3     4994     TIP3     OH2      OT      -0.834000       15.9994           0
     23557 TIP3     4994     TIP3     H1       HT       0.417000       1.00800           0
     23558 TIP3     4994     TIP3     H2       HT       0.417000       1.00800           0
     23559 TIP3     4995     TIP3     OH2      OT      -0.834000       15.9994           0
     23560 TIP3     4995     TIP3     H1       HT       0.417000       1.00800           0
     23561 TIP3     4995     TIP3     H2       HT       0.417000       1.00800           0
     23562 TIP3     4996     TIP3     OH2      OT      -0.834000       15.9994           0
     23563 TIP3     4996     TIP3     H1       HT       0.417000       1.00800           0
     23564 TIP3     4996     TIP3     H2       HT       0.417000       1.00800           0
     23565 TIP3     4997     TIP3     OH2      OT      -0.834000       15.9994           0
     23566 TIP3     4997     TIP3     H1       HT       0.417000       1.00800           0
     23567 TIP3     4997     TIP3     H2       HT       0.417000       1.00800           0
     23568 TIP3     4998     TIP3     OH2      OT      -0.834000       15.9994           0
     23569 TIP3     4998     TIP3     H1       HT       0.417000       1.00800           0
     23570 TIP3     4998     TIP3     H2       HT       0.417000       1.00800           0
     23571 TIP3     4999     TIP3     OH2      OT      -0.834000       15.9994           0
     23572 TIP3     4999     TIP3     H1       HT       0.417000       1.00800           0
     23573 TIP3     4999     TIP3     H2       HT       0.417000       1.00800           0
     23574 TIP3     5000     TIP3     OH2      OT      -0.834000       15.9994           0
     23575 TIP3     5000     TIP3     H1       HT       0.417000       1.00800           0
     23576 TIP3     5000     TIP3     H2       HT       0.417000       1.00800           0
     23577 TIP3     5001     TIP3     OH2      OT      -0.834000       15.9994           0
     23578 TIP3     5001     TIP3     H1       HT       0.417000       1.00800           0
     23579 TIP3     5001     TIP3     H2       HT       0.417000       1.00800           0
     23580 TIP3     5002     TIP3     OH2      OT      -0.834000       15.9994           0
     23581 TIP3     5002     TIP3     H1       HT       0.417000       1.00800           0
     23582 TIP3     5002     TIP3     H2       HT       0.417000       1.00800           0
     23583 TIP3     5003     TIP3     OH2      OT      -0.834000       15.9994           0
     23584 TIP3     5003     TIP3     H1       HT       0.417000       1.00800           0
     23585 TIP3     5003     TIP3     H2       HT       0.417000       1.00800           0
     23586 TIP3     5004     TIP3     OH2      OT      -0.834000       15.9994           0
     23587 TIP3     5004     TIP3     H1       HT       0.417000       1.00800           0
     23588 TIP3     5004     TIP3     H2       HT       0.417000       1.00800           0
     23589 TIP3     5005     TIP3     OH2      OT      -0.834000       15.9994           0
     23590 TIP3     5005     TIP3     H1       HT       0.417000       1.00800           0
     23591 TIP3     5005     TIP3     H2       HT       0.417000       1.00800           0
     23592 TIP3     5006     TIP3     OH2      OT      -0.834000       15.9994           0
     23593 TIP3     5006     TIP3     H1       HT       0.417000       1.00800           0
     23594 TIP3     5006     TIP3     H2       HT       0.417000       1.00800           0
     23595 TIP3     5007     TIP3     OH2      OT      -0.834000       15.9994           0
     23596 TIP3     5007     TIP3     H1       HT       0.417000       1.00800           0
     23597 TIP3     5007     TIP3     H2       HT       0.417000       1.00800           0
     23598 TIP3     5008     TIP3     OH2      OT      -0.834000       15.9994           0
     23599 TIP3     5008     TIP3     H1       HT       0.417000       1.00800           0
     23600 TIP3     5008     TIP3     H2       HT       0.417000       1.00800           0
     23601 TIP3     5009     TIP3     OH2      OT      -0.834000       15.9994           0
     23602 TIP3     5009     TIP3     H1       HT       0.417000       1.00800           0
     23603 TIP3     5009     TIP3     H2       HT       0.417000       1.00800           0
     23604 TIP3     5010     TIP3     OH2      OT      -0.834000       15.9994           0
     23605 TIP3     5010     TIP3     H1       HT       0.417000       1.00800           0
     23606 TIP3     5010     TIP3     H2       HT       0.417000       1.00800           0
     23607 TIP3     5011     TIP3     OH2      OT      -0.834000       15.9994           0
     23608 TIP3     5011     TIP3     H1       HT       0.417000       1.00800           0
     23609 TIP3     5011     TIP3     H2       HT       0.417000       1.00800           0
     23610 TIP3     5012     TIP3     OH2      OT      -0.834000       15.9994           0
     23611 TIP3     5012     TIP3     H1       HT       0.417000       1.00800           0
     23612 TIP3     5012     TIP3     H2       HT       0.417000       1.00800           0
     23613 TIP3     5013     TIP3     OH2      OT      -0.834000       15.9994           0
     23614 TIP3     5013     TIP3     H1       HT       0.417000       1.00800           0
     23615 TIP3     5013     TIP3     H2       HT       0.417000       1.00800           0
     23616 TIP3     5014     TIP3     OH2      OT      -0.834000       15.9994           0
     23617 TIP3     5014     TIP3     H1       HT       0.417000       1.00800           0
     23618 TIP3     5014     TIP3     H2       HT       0.417000       1.00800           0
     23619 TIP3     5015     TIP3     OH2      OT      -0.834000       15.9994           0
     23620 TIP3     5015     TIP3     H1       HT       0.417000       1.00800           0
     23621 TIP3     5015     TIP3     H2       HT       0.417000       1.00800           0
     23622 TIP3     5016     TIP3     OH2      OT      -0.834000       15.9994           0
     23623 TIP3     5016     TIP3     H1       HT       0.417000       1.00800           0
     23624 TIP3     5016     TIP3     H2       HT       0.417000       1.00800           0
     23625 TIP3     5017     TIP3     OH2      OT      -0.834000       15.9994           0
     23626 TIP3     5017     TIP3     H1       HT       0.417000       1.00800           0
     23627 TIP3     5017     TIP3     H2       HT       0.417000       1.00800           0
     23628 TIP3     5018     TIP3     OH2      OT      -0.834000       15.9994           0
     23629 TIP3     5018     TIP3     H1       HT       0.417000       1.00800           0
     23630 TIP3     5018     TIP3     H2       HT       0.417000       1.00800           0
     23631 TIP3     5019     TIP3     OH2      OT      -0.834000       15.9994           0
     23632 TIP3     5019     TIP3     H1       HT       0.417000       1.00800           0
     23633 TIP3     5019     TIP3     H2       HT       0.417000       1.00800           0
     23634 TIP3     5020     TIP3     OH2      OT      -0.834000       15.9994           0
     23635 TIP3     5020     TIP3     H1       HT       0.417000       1.00800           0
     23636 TIP3     5020     TIP3     H2       HT       0.417000       1.00800           0
     23637 TIP3     5021     TIP3     OH2      OT      -0.834000       15.9994           0
     23638 TIP3     5021     TIP3     H1       HT       0.417000       1.00800           0
     23639 TIP3     5021     TIP3     H2       HT       0.417000       1.00800           0
     23640 TIP3     5022     TIP3     OH2      OT      -0.834000       15.9994           0
     23641 TIP3     5022     TIP3     H1       HT       0.417000       1.00800           0
     23642 TIP3     5022     TIP3     H2       HT       0.417000       1.00800           0
     23643 TIP3     5023     TIP3     OH2      OT      -0.834000       15.9994           0
     23644 TIP3     5023     TIP3     H1       HT       0.417000       1.00800           0
     23645 TIP3     5023     TIP3     H2       HT       0.417000       1.00800           0
     23646 TIP3     5024     TIP3     OH2      OT      -0.834000       15.9994           0
     23647 TIP3     5024     TIP3     H1       HT       0.417000       1.00800           0
     23648 TIP3     5024     TIP3     H2       HT       0.417000       1.00800           0
     23649 TIP3     5025     TIP3     OH2      OT      -0.834000       15.9994           0
     23650 TIP3     5025     TIP3     H1       HT       0.417000       1.00800           0
     23651 TIP3     5025     TIP3     H2       HT       0.417000       1.00800           0
     23652 TIP3     5026     TIP3     OH2      OT      -0.834000       15.9994           0
     23653 TIP3     5026     TIP3     H1       HT       0.417000       1.00800           0
     23654 TIP3     5026     TIP3     H2       HT       0.417000       1.00800           0
     23655 TIP3     5027     TIP3     OH2      OT      -0.834000       15.9994           0
     23656 TIP3     5027     TIP3     H1       HT       0.417000       1.00800           0
     23657 TIP3     5027     TIP3     H2       HT       0.417000       1.00800           0
     23658 TIP3     5028     TIP3     OH2      OT      -0.834000       15.9994           0
     23659 TIP3     5028     TIP3     H1       HT       0.417000       1.00800           0
     23660 TIP3     5028     TIP3     H2       HT       0.417000       1.00800           0
     23661 TIP3     5029     TIP3     OH2      OT      -0.834000       15.9994           0
     23662 TIP3     5029     TIP3     H1       HT       0.417000       1.00800           0
     23663 TIP3     5029     TIP3     H2       HT       0.417000       1.00800           0
     23664 TIP3     5030     TIP3     OH2      OT      -0.834000       15.9994           0
     23665 TIP3     5030     TIP3     H1       HT       0.417000       1.00800           0
     23666 TIP3     5030     TIP3     H2       HT       0.417000       1.00800           0
     23667 TIP3     5031     TIP3     OH2      OT      -0.834000       15.9994           0
     23668 TIP3     5031     TIP3     H1       HT       0.417000       1.00800           0
     23669 TIP3     5031     TIP3     H2       HT       0.417000       1.00800           0
     23670 TIP3     5032     TIP3     OH2      OT      -0.834000       15.9994           0
     23671 TIP3     5032     TIP3     H1       HT       0.417000       1.00800           0
     23672 TIP3     5032     TIP3     H2       HT       0.417000       1.00800           0
     23673 TIP3     5033     TIP3     OH2      OT      -0.834000       15.9994           0
     23674 TIP3     5033     TIP3     H1       HT       0.417000       1.00800           0
     23675 TIP3     5033     TIP3     H2       HT       0.417000       1.00800           0
     23676 TIP3     5034     TIP3     OH2      OT      -0.834000       15.9994           0
     23677 TIP3     5034     TIP3     H1       HT       0.417000       1.00800           0
     23678 TIP3     5034     TIP3     H2       HT       0.417000       1.00800           0
     23679 TIP3     5035     TIP3     OH2      OT      -0.834000       15.9994           0
     23680 TIP3     5035     TIP3     H1       HT       0.417000       1.00800           0
     23681 TIP3     5035     TIP3     H2       HT       0.417000       1.00800           0
     23682 TIP3     5036     TIP3     OH2      OT      -0.834000       15.9994           0
     23683 TIP3     5036     TIP3     H1       HT       0.417000       1.00800           0
     23684 TIP3     5036     TIP3     H2       HT       0.417000       1.00800           0
     23685 TIP3     5037     TIP3     OH2      OT      -0.834000       15.9994           0
     23686 TIP3     5037     TIP3     H1       HT       0.417000       1.00800           0
     23687 TIP3     5037     TIP3     H2       HT       0.417000       1.00800           0
     23688 TIP3     5038     TIP3     OH2      OT      -0.834000       15.9994           0
     23689 TIP3     5038     TIP3     H1       HT       0.417000       1.00800           0
     23690 TIP3     5038     TIP3     H2       HT       0.417000       1.00800           0
     23691 TIP3     5039     TIP3     OH2      OT      -0.834000       15.9994           0
     23692 TIP3     5039     TIP3     H1       HT       0.417000       1.00800           0
     23693 TIP3     5039     TIP3     H2       HT       0.417000       1.00800           0
     23694 TIP3     5040     TIP3     OH2      OT      -0.834000       15.9994           0
     23695 TIP3     5040     TIP3     H1       HT       0.417000       1.00800           0
     23696 TIP3     5040     TIP3     H2       HT       0.417000       1.00800           0
     23697 TIP3     5041     TIP3     OH2      OT      -0.834000       15.9994           0
     23698 TIP3     5041     TIP3     H1       HT       0.417000       1.00800           0
     23699 TIP3     5041     TIP3     H2       HT       0.417000       1.00800           0
     23700 TIP3     5042     TIP3     OH2      OT      -0.834000       15.9994           0
     23701 TIP3     5042     TIP3     H1       HT       0.417000       1.00800           0
     23702 TIP3     5042     TIP3     H2       HT       0.417000       1.00800           0
     23703 TIP3     5043     TIP3     OH2      OT      -0.834000       15.9994           0
     23704 TIP3     5043     TIP3     H1       HT       0.417000       1.00800           0
     23705 TIP3     5043     TIP3     H2       HT       0.417000       1.00800           0
     23706 TIP3     5044     TIP3     OH2      OT      -0.834000       15.9994           0
     23707 TIP3     5044     TIP3     H1       HT       0.417000       1.00800           0
     23708 TIP3     5044     TIP3     H2       HT       0.417000       1.00800           0
     23709 TIP3     5045     TIP3     OH2      OT      -0.834000       15.9994           0
     23710 TIP3     5045     TIP3     H1       HT       0.417000       1.00800           0
     23711 TIP3     5045     TIP3     H2       HT       0.417000       1.00800           0
     23712 TIP3     5046     TIP3     OH2      OT      -0.834000       15.9994           0
     23713 TIP3     5046     TIP3     H1       HT       0.417000       1.00800           0
     23714 TIP3     5046     TIP3     H2       HT       0.417000       1.00800           0
     23715 TIP3     5047     TIP3     OH2      OT      -0.834000       15.9994           0
     23716 TIP3     5047     TIP3     H1       HT       0.417000       1.00800           0
     23717 TIP3     5047     TIP3     H2       HT       0.417000       1.00800           0
     23718 TIP3     5048     TIP3     OH2      OT      -0.834000       15.9994           0
     23719 TIP3     5048     TIP3     H1       HT       0.417000       1.00800           0
     23720 TIP3     5048     TIP3     H2       HT       0.417000       1.00800           0
     23721 TIP3     5049     TIP3     OH2      OT      -0.834000       15.9994           0
     23722 TIP3     5049     TIP3     H1       HT       0.417000       1.00800           0
     23723 TIP3     5049     TIP3     H2       HT       0.417000       1.00800           0
     23724 TIP3     5050     TIP3     OH2      OT      -0.834000       15.9994           0
     23725 TIP3     5050     TIP3     H1       HT       0.417000       1.00800           0
     23726 TIP3     5050     TIP3     H2       HT       0.417000       1.00800           0
     23727 TIP3     5051     TIP3     OH2      OT      -0.834000       15.9994           0
     23728 TIP3     5051     TIP3     H1       HT       0.417000       1.00800           0
     23729 TIP3     5051     TIP3     H2       HT       0.417000       1.00800           0
     23730 TIP3     5052     TIP3     OH2      OT      -0.834000       15.9994           0
     23731 TIP3     5052     TIP3     H1       HT       0.417000       1.00800           0
     23732 TIP3     5052     TIP3     H2       HT       0.417000       1.00800           0
     23733 TIP3     5053     TIP3     OH2      OT      -0.834000       15.9994           0
     23734 TIP3     5053     TIP3     H1       HT       0.417000       1.00800           0
     23735 TIP3     5053     TIP3     H2       HT       0.417000       1.00800           0
     23736 TIP3     5054     TIP3     OH2      OT      -0.834000       15.9994           0
     23737 TIP3     5054     TIP3     H1       HT       0.417000       1.00800           0
     23738 TIP3     5054     TIP3     H2       HT       0.417000       1.00800           0
     23739 TIP3     5055     TIP3     OH2      OT      -0.834000       15.9994           0
     23740 TIP3     5055     TIP3     H1       HT       0.417000       1.00800           0
     23741 TIP3     5055     TIP3     H2       HT       0.417000       1.00800           0
     23742 TIP3     5056     TIP3     OH2      OT      -0.834000       15.9994           0
     23743 TIP3     5056     TIP3     H1       HT       0.417000       1.00800           0
     23744 TIP3     5056     TIP3     H2       HT       0.417000       1.00800           0
     23745 TIP3     5057     TIP3     OH2      OT      -0.834000       15.9994           0
     23746 TIP3     5057     TIP3     H1       HT       0.417000       1.00800           0
     23747 TIP3     5057     TIP3     H2       HT       0.417000       1.00800           0
     23748 TIP3     5058     TIP3     OH2      OT      -0.834000       15.9994           0
     23749 TIP3     5058     TIP3     H1       HT       0.417000       1.00800           0
     23750 TIP3     5058     TIP3     H2       HT       0.417000       1.00800           0
     23751 TIP3     5059     TIP3     OH2      OT      -0.834000       15.9994           0
     23752 TIP3     5059     TIP3     H1       HT       0.417000       1.00800           0
     23753 TIP3     5059     TIP3     H2       HT       0.417000       1.00800           0
     23754 TIP3     5060     TIP3     OH2      OT      -0.834000       15.9994           0
     23755 TIP3     5060     TIP3     H1       HT       0.417000       1.00800           0
     23756 TIP3     5060     TIP3     H2       HT       0.417000       1.00800           0
     23757 TIP3     5061     TIP3     OH2      OT      -0.834000       15.9994           0
     23758 TIP3     5061     TIP3     H1       HT       0.417000       1.00800           0
     23759 TIP3     5061     TIP3     H2       HT       0.417000       1.00800           0
     23760 TIP3     5062     TIP3     OH2      OT      -0.834000       15.9994           0
     23761 TIP3     5062     TIP3     H1       HT       0.417000       1.00800           0
     23762 TIP3     5062     TIP3     H2       HT       0.417000       1.00800           0
     23763 TIP3     5063     TIP3     OH2      OT      -0.834000       15.9994           0
     23764 TIP3     5063     TIP3     H1       HT       0.417000       1.00800           0
     23765 TIP3     5063     TIP3     H2       HT       0.417000       1.00800           0
     23766 TIP3     5064     TIP3     OH2      OT      -0.834000       15.9994           0
     23767 TIP3     5064     TIP3     H1       HT       0.417000       1.00800           0
     23768 TIP3     5064     TIP3     H2       HT       0.417000       1.00800           0
     23769 TIP3     5065     TIP3     OH2      OT      -0.834000       15.9994           0
     23770 TIP3     5065     TIP3     H1       HT       0.417000       1.00800           0
     23771 TIP3     5065     TIP3     H2       HT       0.417000       1.00800           0
     23772 TIP3     5066     TIP3     OH2      OT      -0.834000       15.9994           0
     23773 TIP3     5066     TIP3     H1       HT       0.417000       1.00800           0
     23774 TIP3     5066     TIP3     H2       HT       0.417000       1.00800           0
     23775 TIP3     5067     TIP3     OH2      OT      -0.834000       15.9994           0
     23776 TIP3     5067     TIP3     H1       HT       0.417000       1.00800           0
     23777 TIP3     5067     TIP3     H2       HT       0.417000       1.00800           0
     23778 TIP3     5068     TIP3     OH2      OT      -0.834000       15.9994           0
     23779 TIP3     5068     TIP3     H1       HT       0.417000       1.00800           0
     23780 TIP3     5068     TIP3     H2       HT       0.417000       1.00800           0
     23781 TIP3     5069     TIP3     OH2      OT      -0.834000       15.9994           0
     23782 TIP3     5069     TIP3     H1       HT       0.417000       1.00800           0
     23783 TIP3     5069     TIP3     H2       HT       0.417000       1.00800           0
     23784 TIP3     5070     TIP3     OH2      OT      -0.834000       15.9994           0
     23785 TIP3     5070     TIP3     H1       HT       0.417000       1.00800           0
     23786 TIP3     5070     TIP3     H2       HT       0.417000       1.00800           0
     23787 TIP3     5071     TIP3     OH2      OT      -0.834000       15.9994           0
     23788 TIP3     5071     TIP3     H1       HT       0.417000       1.00800           0
     23789 TIP3     5071     TIP3     H2       HT       0.417000       1.00800           0
     23790 TIP3     5072     TIP3     OH2      OT      -0.834000       15.9994           0
     23791 TIP3     5072     TIP3     H1       HT       0.417000       1.00800           0
     23792 TIP3     5072     TIP3     H2       HT       0.417000       1.00800           0
     23793 TIP3     5073     TIP3     OH2      OT      -0.834000       15.9994           0
     23794 TIP3     5073     TIP3     H1       HT       0.417000       1.00800           0
     23795 TIP3     5073     TIP3     H2       HT       0.417000       1.00800           0
     23796 TIP3     5074     TIP3     OH2      OT      -0.834000       15.9994           0
     23797 TIP3     5074     TIP3     H1       HT       0.417000       1.00800           0
     23798 TIP3     5074     TIP3     H2       HT       0.417000       1.00800           0
     23799 TIP3     5075     TIP3     OH2      OT      -0.834000       15.9994           0
     23800 TIP3     5075     TIP3     H1       HT       0.417000       1.00800           0
     23801 TIP3     5075     TIP3     H2       HT       0.417000       1.00800           0
     23802 TIP3     5076     TIP3     OH2      OT      -0.834000       15.9994           0
     23803 TIP3     5076     TIP3     H1       HT       0.417000       1.00800           0
     23804 TIP3     5076     TIP3     H2       HT       0.417000       1.00800           0
     23805 TIP3     5077     TIP3     OH2      OT      -0.834000       15.9994           0
     23806 TIP3     5077     TIP3     H1       HT       0.417000       1.00800           0
     23807 TIP3     5077     TIP3     H2       HT       0.417000       1.00800           0
     23808 TIP3     5078     TIP3     OH2      OT      -0.834000       15.9994           0
     23809 TIP3     5078     TIP3     H1       HT       0.417000       1.00800           0
     23810 TIP3     5078     TIP3     H2       HT       0.417000       1.00800           0
     23811 TIP3     5079     TIP3     OH2      OT      -0.834000       15.9994           0
     23812 TIP3     5079     TIP3     H1       HT       0.417000       1.00800           0
     23813 TIP3     5079     TIP3     H2       HT       0.417000       1.00800           0
     23814 TIP3     5080     TIP3     OH2      OT      -0.834000       15.9994           0
     23815 TIP3     5080     TIP3     H1       HT       0.417000       1.00800           0
     23816 TIP3     5080     TIP3     H2       HT       0.417000       1.00800           0
     23817 TIP3     5081     TIP3     OH2      OT      -0.834000       15.9994           0
     23818 TIP3     5081     TIP3     H1       HT       0.417000       1.00800           0
     23819 TIP3     5081     TIP3     H2       HT       0.417000       1.00800           0
     23820 TIP3     5082     TIP3     OH2      OT      -0.834000       15.9994           0
     23821 TIP3     5082     TIP3     H1       HT       0.417000       1.00800           0
     23822 TIP3     5082     TIP3     H2       HT       0.417000       1.00800           0
     23823 TIP3     5083     TIP3     OH2      OT      -0.834000       15.9994           0
     23824 TIP3     5083     TIP3     H1       HT       0.417000       1.00800           0
     23825 TIP3     5083     TIP3     H2       HT       0.417000       1.00800           0
     23826 TIP3     5084     TIP3     OH2      OT      -0.834000       15.9994           0
     23827 TIP3     5084     TIP3     H1       HT       0.417000       1.00800           0
     23828 TIP3     5084     TIP3     H2       HT       0.417000       1.00800           0
     23829 TIP3     5085     TIP3     OH2      OT      -0.834000       15.9994           0
     23830 TIP3     5085     TIP3     H1       HT       0.417000       1.00800           0
     23831 TIP3     5085     TIP3     H2       HT       0.417000       1.00800           0
     23832 TIP3     5086     TIP3     OH2      OT      -0.834000       15.9994           0
     23833 TIP3     5086     TIP3     H1       HT       0.417000       1.00800           0
     23834 TIP3     5086     TIP3     H2       HT       0.417000       1.00800           0
     23835 TIP3     5087     TIP3     OH2      OT      -0.834000       15.9994           0
     23836 TIP3     5087     TIP3     H1       HT       0.417000       1.00800           0
     23837 TIP3     5087     TIP3     H2       HT       0.417000       1.00800           0
     23838 TIP3     5088     TIP3     OH2      OT      -0.834000       15.9994           0
     23839 TIP3     5088     TIP3     H1       HT       0.417000       1.00800           0
     23840 TIP3     5088     TIP3     H2       HT       0.417000       1.00800           0
     23841 TIP3     5089     TIP3     OH2      OT      -0.834000       15.9994           0
     23842 TIP3     5089     TIP3     H1       HT       0.417000       1.00800           0
     23843 TIP3     5089     TIP3     H2       HT       0.417000       1.00800           0
     23844 TIP3     5090     TIP3     OH2      OT      -0.834000       15.9994           0
     23845 TIP3     5090     TIP3     H1       HT       0.417000       1.00800           0
     23846 TIP3     5090     TIP3     H2       HT       0.417000       1.00800           0
     23847 TIP3     5091     TIP3     OH2      OT      -0.834000       15.9994           0
     23848 TIP3     5091     TIP3     H1       HT       0.417000       1.00800           0
     23849 TIP3     5091     TIP3     H2       HT       0.417000       1.00800           0
     23850 TIP3     5092     TIP3     OH2      OT      -0.834000       15.9994           0
     23851 TIP3     5092     TIP3     H1       HT       0.417000       1.00800           0
     23852 TIP3     5092     TIP3     H2       HT       0.417000       1.00800           0
     23853 TIP3     5093     TIP3     OH2      OT      -0.834000       15.9994           0
     23854 TIP3     5093     TIP3     H1       HT       0.417000       1.00800           0
     23855 TIP3     5093     TIP3     H2       HT       0.417000       1.00800           0
     23856 TIP3     5094     TIP3     OH2      OT      -0.834000       15.9994           0
     23857 TIP3     5094     TIP3     H1       HT       0.417000       1.00800           0
     23858 TIP3     5094     TIP3     H2       HT       0.417000       1.00800           0
     23859 TIP3     5095     TIP3     OH2      OT      -0.834000       15.9994           0
     23860 TIP3     5095     TIP3     H1       HT       0.417000       1.00800           0
     23861 TIP3     5095     TIP3     H2       HT       0.417000       1.00800           0
     23862 TIP3     5096     TIP3     OH2      OT      -0.834000       15.9994           0
     23863 TIP3     5096     TIP3     H1       HT       0.417000       1.00800           0
     23864 TIP3     5096     TIP3     H2       HT       0.417000       1.00800           0
     23865 TIP3     5097     TIP3     OH2      OT      -0.834000       15.9994           0
     23866 TIP3     5097     TIP3     H1       HT       0.417000       1.00800           0
     23867 TIP3     5097     TIP3     H2       HT       0.417000       1.00800           0
     23868 TIP3     5098     TIP3     OH2      OT      -0.834000       15.9994           0
     23869 TIP3     5098     TIP3     H1       HT       0.417000       1.00800           0
     23870 TIP3     5098     TIP3     H2       HT       0.417000       1.00800           0
     23871 TIP3     5099     TIP3     OH2      OT      -0.834000       15.9994           0
     23872 TIP3     5099     TIP3     H1       HT       0.417000       1.00800           0
     23873 TIP3     5099     TIP3     H2       HT       0.417000       1.00800           0
     23874 TIP3     5100     TIP3     OH2      OT      -0.834000       15.9994           0
     23875 TIP3     5100     TIP3     H1       HT       0.417000       1.00800           0
     23876 TIP3     5100     TIP3     H2       HT       0.417000       1.00800           0
     23877 TIP3     5101     TIP3     OH2      OT      -0.834000       15.9994           0
     23878 TIP3     5101     TIP3     H1       HT       0.417000       1.00800           0
     23879 TIP3     5101     TIP3     H2       HT       0.417000       1.00800           0
     23880 TIP3     5102     TIP3     OH2      OT      -0.834000       15.9994           0
     23881 TIP3     5102     TIP3     H1       HT       0.417000       1.00800           0
     23882 TIP3     5102     TIP3     H2       HT       0.417000       1.00800           0
     23883 TIP3     5103     TIP3     OH2      OT      -0.834000       15.9994           0
     23884 TIP3     5103     TIP3     H1       HT       0.417000       1.00800           0
     23885 TIP3     5103     TIP3     H2       HT       0.417000       1.00800           0
     23886 TIP3     5104     TIP3     OH2      OT      -0.834000       15.9994           0
     23887 TIP3     5104     TIP3     H1       HT       0.417000       1.00800           0
     23888 TIP3     5104     TIP3     H2       HT       0.417000       1.00800           0
     23889 TIP3     5105     TIP3     OH2      OT      -0.834000       15.9994           0
     23890 TIP3     5105     TIP3     H1       HT       0.417000       1.00800           0
     23891 TIP3     5105     TIP3     H2       HT       0.417000       1.00800           0
     23892 TIP3     5106     TIP3     OH2      OT      -0.834000       15.9994           0
     23893 TIP3     5106     TIP3     H1       HT       0.417000       1.00800           0
     23894 TIP3     5106     TIP3     H2       HT       0.417000       1.00800           0
     23895 TIP3     5107     TIP3     OH2      OT      -0.834000       15.9994           0
     23896 TIP3     5107     TIP3     H1       HT       0.417000       1.00800           0
     23897 TIP3     5107     TIP3     H2       HT       0.417000       1.00800           0
     23898 TIP3     5108     TIP3     OH2      OT      -0.834000       15.9994           0
     23899 TIP3     5108     TIP3     H1       HT       0.417000       1.00800           0
     23900 TIP3     5108     TIP3     H2       HT       0.417000       1.00800           0
     23901 TIP3     5109     TIP3     OH2      OT      -0.834000       15.9994           0
     23902 TIP3     5109     TIP3     H1       HT       0.417000       1.00800           0
     23903 TIP3     5109     TIP3     H2       HT       0.417000       1.00800           0
     23904 TIP3     5110     TIP3     OH2      OT      -0.834000       15.9994           0
     23905 TIP3     5110     TIP3     H1       HT       0.417000       1.00800           0
     23906 TIP3     5110     TIP3     H2       HT       0.417000       1.00800           0
     23907 TIP3     5111     TIP3     OH2      OT      -0.834000       15.9994           0
     23908 TIP3     5111     TIP3     H1       HT       0.417000       1.00800           0
     23909 TIP3     5111     TIP3     H2       HT       0.417000       1.00800           0
     23910 TIP3     5112     TIP3     OH2      OT      -0.834000       15.9994           0
     23911 TIP3     5112     TIP3     H1       HT       0.417000       1.00800           0
     23912 TIP3     5112     TIP3     H2       HT       0.417000       1.00800           0
     23913 TIP3     5113     TIP3     OH2      OT      -0.834000       15.9994           0
     23914 TIP3     5113     TIP3     H1       HT       0.417000       1.00800           0
     23915 TIP3     5113     TIP3     H2       HT       0.417000       1.00800           0
     23916 TIP3     5114     TIP3     OH2      OT      -0.834000       15.9994           0
     23917 TIP3     5114     TIP3     H1       HT       0.417000       1.00800           0
     23918 TIP3     5114     TIP3     H2       HT       0.417000       1.00800           0
     23919 TIP3     5115     TIP3     OH2      OT      -0.834000       15.9994           0
     23920 TIP3     5115     TIP3     H1       HT       0.417000       1.00800           0
     23921 TIP3     5115     TIP3     H2       HT       0.417000       1.00800           0
     23922 TIP3     5116     TIP3     OH2      OT      -0.834000       15.9994           0
     23923 TIP3     5116     TIP3     H1       HT       0.417000       1.00800           0
     23924 TIP3     5116     TIP3     H2       HT       0.417000       1.00800           0
     23925 TIP3     5117     TIP3     OH2      OT      -0.834000       15.9994           0
     23926 TIP3     5117     TIP3     H1       HT       0.417000       1.00800           0
     23927 TIP3     5117     TIP3     H2       HT       0.417000       1.00800           0
     23928 TIP3     5118     TIP3     OH2      OT      -0.834000       15.9994           0
     23929 TIP3     5118     TIP3     H1       HT       0.417000       1.00800           0
     23930 TIP3     5118     TIP3     H2       HT       0.417000       1.00800           0
     23931 TIP3     5119     TIP3     OH2      OT      -0.834000       15.9994           0
     23932 TIP3     5119     TIP3     H1       HT       0.417000       1.00800           0
     23933 TIP3     5119     TIP3     H2       HT       0.417000       1.00800           0
     23934 TIP3     5120     TIP3     OH2      OT      -0.834000       15.9994           0
     23935 TIP3     5120     TIP3     H1       HT       0.417000       1.00800           0
     23936 TIP3     5120     TIP3     H2       HT       0.417000       1.00800           0
     23937 TIP3     5121     TIP3     OH2      OT      -0.834000       15.9994           0
     23938 TIP3     5121     TIP3     H1       HT       0.417000       1.00800           0
     23939 TIP3     5121     TIP3     H2       HT       0.417000       1.00800           0
     23940 TIP3     5122     TIP3     OH2      OT      -0.834000       15.9994           0
     23941 TIP3     5122     TIP3     H1       HT       0.417000       1.00800           0
     23942 TIP3     5122     TIP3     H2       HT       0.417000       1.00800           0
     23943 TIP3     5123     TIP3     OH2      OT      -0.834000       15.9994           0
     23944 TIP3     5123     TIP3     H1       HT       0.417000       1.00800           0
     23945 TIP3     5123     TIP3     H2       HT       0.417000       1.00800           0
     23946 TIP3     5124     TIP3     OH2      OT      -0.834000       15.9994           0
     23947 TIP3     5124     TIP3     H1       HT       0.417000       1.00800           0
     23948 TIP3     5124     TIP3     H2       HT       0.417000       1.00800           0
     23949 TIP3     5125     TIP3     OH2      OT      -0.834000       15.9994           0
     23950 TIP3     5125     TIP3     H1       HT       0.417000       1.00800           0
     23951 TIP3     5125     TIP3     H2       HT       0.417000       1.00800           0
     23952 TIP3     5126     TIP3     OH2      OT      -0.834000       15.9994           0
     23953 TIP3     5126     TIP3     H1       HT       0.417000       1.00800           0
     23954 TIP3     5126     TIP3     H2       HT       0.417000       1.00800           0
     23955 TIP3     5127     TIP3     OH2      OT      -0.834000       15.9994           0
     23956 TIP3     5127     TIP3     H1       HT       0.417000       1.00800           0
     23957 TIP3     5127     TIP3     H2       HT       0.417000       1.00800           0
     23958 TIP3     5128     TIP3     OH2      OT      -0.834000       15.9994           0
     23959 TIP3     5128     TIP3     H1       HT       0.417000       1.00800           0
     23960 TIP3     5128     TIP3     H2       HT       0.417000       1.00800           0
     23961 TIP3     5129     TIP3     OH2      OT      -0.834000       15.9994           0
     23962 TIP3     5129     TIP3     H1       HT       0.417000       1.00800           0
     23963 TIP3     5129     TIP3     H2       HT       0.417000       1.00800           0
     23964 TIP3     5130     TIP3     OH2      OT      -0.834000       15.9994           0
     23965 TIP3     5130     TIP3     H1       HT       0.417000       1.00800           0
     23966 TIP3     5130     TIP3     H2       HT       0.417000       1.00800           0
     23967 TIP3     5131     TIP3     OH2      OT      -0.834000       15.9994           0
     23968 TIP3     5131     TIP3     H1       HT       0.417000       1.00800           0
     23969 TIP3     5131     TIP3     H2       HT       0.417000       1.00800           0
     23970 TIP3     5132     TIP3     OH2      OT      -0.834000       15.9994           0
     23971 TIP3     5132     TIP3     H1       HT       0.417000       1.00800           0
     23972 TIP3     5132     TIP3     H2       HT       0.417000       1.00800           0
     23973 TIP3     5133     TIP3     OH2      OT      -0.834000       15.9994           0
     23974 TIP3     5133     TIP3     H1       HT       0.417000       1.00800           0
     23975 TIP3     5133     TIP3     H2       HT       0.417000       1.00800           0
     23976 TIP3     5134     TIP3     OH2      OT      -0.834000       15.9994           0
     23977 TIP3     5134     TIP3     H1       HT       0.417000       1.00800           0
     23978 TIP3     5134     TIP3     H2       HT       0.417000       1.00800           0
     23979 TIP3     5135     TIP3     OH2      OT      -0.834000       15.9994           0
     23980 TIP3     5135     TIP3     H1       HT       0.417000       1.00800           0
     23981 TIP3     5135     TIP3     H2       HT       0.417000       1.00800           0
     23982 TIP3     5136     TIP3     OH2      OT      -0.834000       15.9994           0
     23983 TIP3     5136     TIP3     H1       HT       0.417000       1.00800           0
     23984 TIP3     5136     TIP3     H2       HT       0.417000       1.00800           0
     23985 TIP3     5137     TIP3     OH2      OT      -0.834000       15.9994           0
     23986 TIP3     5137     TIP3     H1       HT       0.417000       1.00800           0
     23987 TIP3     5137     TIP3     H2       HT       0.417000       1.00800           0
     23988 TIP3     5138     TIP3     OH2      OT      -0.834000       15.9994           0
     23989 TIP3     5138     TIP3     H1       HT       0.417000       1.00800           0
     23990 TIP3     5138     TIP3     H2       HT       0.417000       1.00800           0
     23991 TIP3     5139     TIP3     OH2      OT      -0.834000       15.9994           0
     23992 TIP3     5139     TIP3     H1       HT       0.417000       1.00800           0
     23993 TIP3     5139     TIP3     H2       HT       0.417000       1.00800           0
     23994 TIP3     5140     TIP3     OH2      OT      -0.834000       15.9994           0
     23995 TIP3     5140     TIP3     H1       HT       0.417000       1.00800           0
     23996 TIP3     5140     TIP3     H2       HT       0.417000       1.00800           0
     23997 TIP3     5141     TIP3     OH2      OT      -0.834000       15.9994           0
     23998 TIP3     5141     TIP3     H1       HT       0.417000       1.00800           0
     23999 TIP3     5141     TIP3     H2       HT       0.417000       1.00800           0
     24000 TIP3     5142     TIP3     OH2      OT      -0.834000       15.9994           0
     24001 TIP3     5142     TIP3     H1       HT       0.417000       1.00800           0
     24002 TIP3     5142     TIP3     H2       HT       0.417000       1.00800           0
     24003 TIP3     5143     TIP3     OH2      OT      -0.834000       15.9994           0
     24004 TIP3     5143     TIP3     H1       HT       0.417000       1.00800           0
     24005 TIP3     5143     TIP3     H2       HT       0.417000       1.00800           0
     24006 TIP3     5144     TIP3     OH2      OT      -0.834000       15.9994           0
     24007 TIP3     5144     TIP3     H1       HT       0.417000       1.00800           0
     24008 TIP3     5144     TIP3     H2       HT       0.417000       1.00800           0
     24009 TIP3     5145     TIP3     OH2      OT      -0.834000       15.9994           0
     24010 TIP3     5145     TIP3     H1       HT       0.417000       1.00800           0
     24011 TIP3     5145     TIP3     H2       HT       0.417000       1.00800           0
     24012 TIP3     5146     TIP3     OH2      OT      -0.834000       15.9994           0
     24013 TIP3     5146     TIP3     H1       HT       0.417000       1.00800           0
     24014 TIP3     5146     TIP3     H2       HT       0.417000       1.00800           0
     24015 TIP3     5147     TIP3     OH2      OT      -0.834000       15.9994           0
     24016 TIP3     5147     TIP3     H1       HT       0.417000       1.00800           0
     24017 TIP3     5147     TIP3     H2       HT       0.417000       1.00800           0
     24018 TIP3     5148     TIP3     OH2      OT      -0.834000       15.9994           0
     24019 TIP3     5148     TIP3     H1       HT       0.417000       1.00800           0
     24020 TIP3     5148     TIP3     H2       HT       0.417000       1.00800           0
     24021 TIP3     5149     TIP3     OH2      OT      -0.834000       15.9994           0
     24022 TIP3     5149     TIP3     H1       HT       0.417000       1.00800           0
     24023 TIP3     5149     TIP3     H2       HT       0.417000       1.00800           0
     24024 TIP3     5150     TIP3     OH2      OT      -0.834000       15.9994           0
     24025 TIP3     5150     TIP3     H1       HT       0.417000       1.00800           0
     24026 TIP3     5150     TIP3     H2       HT       0.417000       1.00800           0
     24027 TIP3     5151     TIP3     OH2      OT      -0.834000       15.9994           0
     24028 TIP3     5151     TIP3     H1       HT       0.417000       1.00800           0
     24029 TIP3     5151     TIP3     H2       HT       0.417000       1.00800           0
     24030 TIP3     5152     TIP3     OH2      OT      -0.834000       15.9994           0
     24031 TIP3     5152     TIP3     H1       HT       0.417000       1.00800           0
     24032 TIP3     5152     TIP3     H2       HT       0.417000       1.00800           0
     24033 TIP3     5153     TIP3     OH2      OT      -0.834000       15.9994           0
     24034 TIP3     5153     TIP3     H1       HT       0.417000       1.00800           0
     24035 TIP3     5153     TIP3     H2       HT       0.417000       1.00800           0
     24036 TIP3     5154     TIP3     OH2      OT      -0.834000       15.9994           0
     24037 TIP3     5154     TIP3     H1       HT       0.417000       1.00800           0
     24038 TIP3     5154     TIP3     H2       HT       0.417000       1.00800           0
     24039 TIP3     5155     TIP3     OH2      OT      -0.834000       15.9994           0
     24040 TIP3     5155     TIP3     H1       HT       0.417000       1.00800           0
     24041 TIP3     5155     TIP3     H2       HT       0.417000       1.00800           0
     24042 TIP3     5156     TIP3     OH2      OT      -0.834000       15.9994           0
     24043 TIP3     5156     TIP3     H1       HT       0.417000       1.00800           0
     24044 TIP3     5156     TIP3     H2       HT       0.417000       1.00800           0
     24045 TIP3     5157     TIP3     OH2      OT      -0.834000       15.9994           0
     24046 TIP3     5157     TIP3     H1       HT       0.417000       1.00800           0
     24047 TIP3     5157     TIP3     H2       HT       0.417000       1.00800           0
     24048 TIP3     5158     TIP3     OH2      OT      -0.834000       15.9994           0
     24049 TIP3     5158     TIP3     H1       HT       0.417000       1.00800           0
     24050 TIP3     5158     TIP3     H2       HT       0.417000       1.00800           0
     24051 TIP3     5159     TIP3     OH2      OT      -0.834000       15.9994           0
     24052 TIP3     5159     TIP3     H1       HT       0.417000       1.00800           0
     24053 TIP3     5159     TIP3     H2       HT       0.417000       1.00800           0
     24054 TIP3     5160     TIP3     OH2      OT      -0.834000       15.9994           0
     24055 TIP3     5160     TIP3     H1       HT       0.417000       1.00800           0
     24056 TIP3     5160     TIP3     H2       HT       0.417000       1.00800           0
     24057 TIP3     5161     TIP3     OH2      OT      -0.834000       15.9994           0
     24058 TIP3     5161     TIP3     H1       HT       0.417000       1.00800           0
     24059 TIP3     5161     TIP3     H2       HT       0.417000       1.00800           0
     24060 TIP3     5162     TIP3     OH2      OT      -0.834000       15.9994           0
     24061 TIP3     5162     TIP3     H1       HT       0.417000       1.00800           0
     24062 TIP3     5162     TIP3     H2       HT       0.417000       1.00800           0
     24063 TIP3     5163     TIP3     OH2      OT      -0.834000       15.9994           0
     24064 TIP3     5163     TIP3     H1       HT       0.417000       1.00800           0
     24065 TIP3     5163     TIP3     H2       HT       0.417000       1.00800           0
     24066 TIP3     5164     TIP3     OH2      OT      -0.834000       15.9994           0
     24067 TIP3     5164     TIP3     H1       HT       0.417000       1.00800           0
     24068 TIP3     5164     TIP3     H2       HT       0.417000       1.00800           0
     24069 TIP3     5165     TIP3     OH2      OT      -0.834000       15.9994           0
     24070 TIP3     5165     TIP3     H1       HT       0.417000       1.00800           0
     24071 TIP3     5165     TIP3     H2       HT       0.417000       1.00800           0
     24072 TIP3     5166     TIP3     OH2      OT      -0.834000       15.9994           0
     24073 TIP3     5166     TIP3     H1       HT       0.417000       1.00800           0
     24074 TIP3     5166     TIP3     H2       HT       0.417000       1.00800           0
     24075 TIP3     5167     TIP3     OH2      OT      -0.834000       15.9994           0
     24076 TIP3     5167     TIP3     H1       HT       0.417000       1.00800           0
     24077 TIP3     5167     TIP3     H2       HT       0.417000       1.00800           0
     24078 TIP3     5168     TIP3     OH2      OT      -0.834000       15.9994           0
     24079 TIP3     5168     TIP3     H1       HT       0.417000       1.00800           0
     24080 TIP3     5168     TIP3     H2       HT       0.417000       1.00800           0
     24081 TIP3     5169     TIP3     OH2      OT      -0.834000       15.9994           0
     24082 TIP3     5169     TIP3     H1       HT       0.417000       1.00800           0
     24083 TIP3     5169     TIP3     H2       HT       0.417000       1.00800           0
     24084 TIP3     5170     TIP3     OH2      OT      -0.834000       15.9994           0
     24085 TIP3     5170     TIP3     H1       HT       0.417000       1.00800           0
     24086 TIP3     5170     TIP3     H2       HT       0.417000       1.00800           0
     24087 TIP3     5171     TIP3     OH2      OT      -0.834000       15.9994           0
     24088 TIP3     5171     TIP3     H1       HT       0.417000       1.00800           0
     24089 TIP3     5171     TIP3     H2       HT       0.417000       1.00800           0
     24090 TIP3     5172     TIP3     OH2      OT      -0.834000       15.9994           0
     24091 TIP3     5172     TIP3     H1       HT       0.417000       1.00800           0
     24092 TIP3     5172     TIP3     H2       HT       0.417000       1.00800           0
     24093 TIP3     5173     TIP3     OH2      OT      -0.834000       15.9994           0
     24094 TIP3     5173     TIP3     H1       HT       0.417000       1.00800           0
     24095 TIP3     5173     TIP3     H2       HT       0.417000       1.00800           0
     24096 TIP3     5174     TIP3     OH2      OT      -0.834000       15.9994           0
     24097 TIP3     5174     TIP3     H1       HT       0.417000       1.00800           0
     24098 TIP3     5174     TIP3     H2       HT       0.417000       1.00800           0
     24099 TIP3     5175     TIP3     OH2      OT      -0.834000       15.9994           0
     24100 TIP3     5175     TIP3     H1       HT       0.417000       1.00800           0
     24101 TIP3     5175     TIP3     H2       HT       0.417000       1.00800           0
     24102 TIP3     5176     TIP3     OH2      OT      -0.834000       15.9994           0
     24103 TIP3     5176     TIP3     H1       HT       0.417000       1.00800           0
     24104 TIP3     5176     TIP3     H2       HT       0.417000       1.00800           0
     24105 TIP3     5177     TIP3     OH2      OT      -0.834000       15.9994           0
     24106 TIP3     5177     TIP3     H1       HT       0.417000       1.00800           0
     24107 TIP3     5177     TIP3     H2       HT       0.417000       1.00800           0
     24108 TIP3     5178     TIP3     OH2      OT      -0.834000       15.9994           0
     24109 TIP3     5178     TIP3     H1       HT       0.417000       1.00800           0
     24110 TIP3     5178     TIP3     H2       HT       0.417000       1.00800           0
     24111 TIP3     5179     TIP3     OH2      OT      -0.834000       15.9994           0
     24112 TIP3     5179     TIP3     H1       HT       0.417000       1.00800           0
     24113 TIP3     5179     TIP3     H2       HT       0.417000       1.00800           0
     24114 TIP3     5180     TIP3     OH2      OT      -0.834000       15.9994           0
     24115 TIP3     5180     TIP3     H1       HT       0.417000       1.00800           0
     24116 TIP3     5180     TIP3     H2       HT       0.417000       1.00800           0
     24117 TIP3     5181     TIP3     OH2      OT      -0.834000       15.9994           0
     24118 TIP3     5181     TIP3     H1       HT       0.417000       1.00800           0
     24119 TIP3     5181     TIP3     H2       HT       0.417000       1.00800           0
     24120 TIP3     5182     TIP3     OH2      OT      -0.834000       15.9994           0
     24121 TIP3     5182     TIP3     H1       HT       0.417000       1.00800           0
     24122 TIP3     5182     TIP3     H2       HT       0.417000       1.00800           0
     24123 TIP3     5183     TIP3     OH2      OT      -0.834000       15.9994           0
     24124 TIP3     5183     TIP3     H1       HT       0.417000       1.00800           0
     24125 TIP3     5183     TIP3     H2       HT       0.417000       1.00800           0
     24126 TIP3     5184     TIP3     OH2      OT      -0.834000       15.9994           0
     24127 TIP3     5184     TIP3     H1       HT       0.417000       1.00800           0
     24128 TIP3     5184     TIP3     H2       HT       0.417000       1.00800           0
     24129 TIP3     5185     TIP3     OH2      OT      -0.834000       15.9994           0
     24130 TIP3     5185     TIP3     H1       HT       0.417000       1.00800           0
     24131 TIP3     5185     TIP3     H2       HT       0.417000       1.00800           0
     24132 TIP3     5186     TIP3     OH2      OT      -0.834000       15.9994           0
     24133 TIP3     5186     TIP3     H1       HT       0.417000       1.00800           0
     24134 TIP3     5186     TIP3     H2       HT       0.417000       1.00800           0
     24135 TIP3     5187     TIP3     OH2      OT      -0.834000       15.9994           0
     24136 TIP3     5187     TIP3     H1       HT       0.417000       1.00800           0
     24137 TIP3     5187     TIP3     H2       HT       0.417000       1.00800           0
     24138 TIP3     5188     TIP3     OH2      OT      -0.834000       15.9994           0
     24139 TIP3     5188     TIP3     H1       HT       0.417000       1.00800           0
     24140 TIP3     5188     TIP3     H2       HT       0.417000       1.00800           0
     24141 TIP3     5189     TIP3     OH2      OT      -0.834000       15.9994           0
     24142 TIP3     5189     TIP3     H1       HT       0.417000       1.00800           0
     24143 TIP3     5189     TIP3     H2       HT       0.417000       1.00800           0
     24144 TIP3     5190     TIP3     OH2      OT      -0.834000       15.9994           0
     24145 TIP3     5190     TIP3     H1       HT       0.417000       1.00800           0
     24146 TIP3     5190     TIP3     H2       HT       0.417000       1.00800           0
     24147 TIP3     5191     TIP3     OH2      OT      -0.834000       15.9994           0
     24148 TIP3     5191     TIP3     H1       HT       0.417000       1.00800           0
     24149 TIP3     5191     TIP3     H2       HT       0.417000       1.00800           0
     24150 TIP3     5192     TIP3     OH2      OT      -0.834000       15.9994           0
     24151 TIP3     5192     TIP3     H1       HT       0.417000       1.00800           0
     24152 TIP3     5192     TIP3     H2       HT       0.417000       1.00800           0
     24153 TIP3     5193     TIP3     OH2      OT      -0.834000       15.9994           0
     24154 TIP3     5193     TIP3     H1       HT       0.417000       1.00800           0
     24155 TIP3     5193     TIP3     H2       HT       0.417000       1.00800           0
     24156 TIP3     5194     TIP3     OH2      OT      -0.834000       15.9994           0
     24157 TIP3     5194     TIP3     H1       HT       0.417000       1.00800           0
     24158 TIP3     5194     TIP3     H2       HT       0.417000       1.00800           0
     24159 TIP3     5195     TIP3     OH2      OT      -0.834000       15.9994           0
     24160 TIP3     5195     TIP3     H1       HT       0.417000       1.00800           0
     24161 TIP3     5195     TIP3     H2       HT       0.417000       1.00800           0
     24162 TIP3     5196     TIP3     OH2      OT      -0.834000       15.9994           0
     24163 TIP3     5196     TIP3     H1       HT       0.417000       1.00800           0
     24164 TIP3     5196     TIP3     H2       HT       0.417000       1.00800           0
     24165 TIP3     5197     TIP3     OH2      OT      -0.834000       15.9994           0
     24166 TIP3     5197     TIP3     H1       HT       0.417000       1.00800           0
     24167 TIP3     5197     TIP3     H2       HT       0.417000       1.00800           0
     24168 TIP3     5198     TIP3     OH2      OT      -0.834000       15.9994           0
     24169 TIP3     5198     TIP3     H1       HT       0.417000       1.00800           0
     24170 TIP3     5198     TIP3     H2       HT       0.417000       1.00800           0
     24171 TIP3     5199     TIP3     OH2      OT      -0.834000       15.9994           0
     24172 TIP3     5199     TIP3     H1       HT       0.417000       1.00800           0
     24173 TIP3     5199     TIP3     H2       HT       0.417000       1.00800           0
     24174 TIP3     5200     TIP3     OH2      OT      -0.834000       15.9994           0
     24175 TIP3     5200     TIP3     H1       HT       0.417000       1.00800           0
     24176 TIP3     5200     TIP3     H2       HT       0.417000       1.00800           0
     24177 TIP3     5201     TIP3     OH2      OT      -0.834000       15.9994           0
     24178 TIP3     5201     TIP3     H1       HT       0.417000       1.00800           0
     24179 TIP3     5201     TIP3     H2       HT       0.417000       1.00800           0
     24180 TIP3     5202     TIP3     OH2      OT      -0.834000       15.9994           0
     24181 TIP3     5202     TIP3     H1       HT       0.417000       1.00800           0
     24182 TIP3     5202     TIP3     H2       HT       0.417000       1.00800           0
     24183 TIP3     5203     TIP3     OH2      OT      -0.834000       15.9994           0
     24184 TIP3     5203     TIP3     H1       HT       0.417000       1.00800           0
     24185 TIP3     5203     TIP3     H2       HT       0.417000       1.00800           0
     24186 TIP3     5204     TIP3     OH2      OT      -0.834000       15.9994           0
     24187 TIP3     5204     TIP3     H1       HT       0.417000       1.00800           0
     24188 TIP3     5204     TIP3     H2       HT       0.417000       1.00800           0
     24189 TIP3     5205     TIP3     OH2      OT      -0.834000       15.9994           0
     24190 TIP3     5205     TIP3     H1       HT       0.417000       1.00800           0
     24191 TIP3     5205     TIP3     H2       HT       0.417000       1.00800           0
     24192 TIP3     5206     TIP3     OH2      OT      -0.834000       15.9994           0
     24193 TIP3     5206     TIP3     H1       HT       0.417000       1.00800           0
     24194 TIP3     5206     TIP3     H2       HT       0.417000       1.00800           0
     24195 TIP3     5207     TIP3     OH2      OT      -0.834000       15.9994           0
     24196 TIP3     5207     TIP3     H1       HT       0.417000       1.00800           0
     24197 TIP3     5207     TIP3     H2       HT       0.417000       1.00800           0
     24198 TIP3     5208     TIP3     OH2      OT      -0.834000       15.9994           0
     24199 TIP3     5208     TIP3     H1       HT       0.417000       1.00800           0
     24200 TIP3     5208     TIP3     H2       HT       0.417000       1.00800           0
     24201 TIP3     5209     TIP3     OH2      OT      -0.834000       15.9994           0
     24202 TIP3     5209     TIP3     H1       HT       0.417000       1.00800           0
     24203 TIP3     5209     TIP3     H2       HT       0.417000       1.00800           0
     24204 TIP3     5210     TIP3     OH2      OT      -0.834000       15.9994           0
     24205 TIP3     5210     TIP3     H1       HT       0.417000       1.00800           0
     24206 TIP3     5210     TIP3     H2       HT       0.417000       1.00800           0
     24207 TIP3     5211     TIP3     OH2      OT      -0.834000       15.9994           0
     24208 TIP3     5211     TIP3     H1       HT       0.417000       1.00800           0
     24209 TIP3     5211     TIP3     H2       HT       0.417000       1.00800           0
     24210 TIP3     5212     TIP3     OH2      OT      -0.834000       15.9994           0
     24211 TIP3     5212     TIP3     H1       HT       0.417000       1.00800           0
     24212 TIP3     5212     TIP3     H2       HT       0.417000       1.00800           0
     24213 TIP3     5213     TIP3     OH2      OT      -0.834000       15.9994           0
     24214 TIP3     5213     TIP3     H1       HT       0.417000       1.00800           0
     24215 TIP3     5213     TIP3     H2       HT       0.417000       1.00800           0
     24216 TIP3     5214     TIP3     OH2      OT      -0.834000       15.9994           0
     24217 TIP3     5214     TIP3     H1       HT       0.417000       1.00800           0
     24218 TIP3     5214     TIP3     H2       HT       0.417000       1.00800           0
     24219 TIP3     5215     TIP3     OH2      OT      -0.834000       15.9994           0
     24220 TIP3     5215     TIP3     H1       HT       0.417000       1.00800           0
     24221 TIP3     5215     TIP3     H2       HT       0.417000       1.00800           0
     24222 TIP3     5216     TIP3     OH2      OT      -0.834000       15.9994           0
     24223 TIP3     5216     TIP3     H1       HT       0.417000       1.00800           0
     24224 TIP3     5216     TIP3     H2       HT       0.417000       1.00800           0
     24225 TIP3     5217     TIP3     OH2      OT      -0.834000       15.9994           0
     24226 TIP3     5217     TIP3     H1       HT       0.417000       1.00800           0
     24227 TIP3     5217     TIP3     H2       HT       0.417000       1.00800           0
     24228 TIP3     5218     TIP3     OH2      OT      -0.834000       15.9994           0
     24229 TIP3     5218     TIP3     H1       HT       0.417000       1.00800           0
     24230 TIP3     5218     TIP3     H2       HT       0.417000       1.00800           0
     24231 TIP3     5219     TIP3     OH2      OT      -0.834000       15.9994           0
     24232 TIP3     5219     TIP3     H1       HT       0.417000       1.00800           0
     24233 TIP3     5219     TIP3     H2       HT       0.417000       1.00800           0
     24234 TIP3     5220     TIP3     OH2      OT      -0.834000       15.9994           0
     24235 TIP3     5220     TIP3     H1       HT       0.417000       1.00800           0
     24236 TIP3     5220     TIP3     H2       HT       0.417000       1.00800           0
     24237 TIP3     5221     TIP3     OH2      OT      -0.834000       15.9994           0
     24238 TIP3     5221     TIP3     H1       HT       0.417000       1.00800           0
     24239 TIP3     5221     TIP3     H2       HT       0.417000       1.00800           0
     24240 TIP3     5222     TIP3     OH2      OT      -0.834000       15.9994           0
     24241 TIP3     5222     TIP3     H1       HT       0.417000       1.00800           0
     24242 TIP3     5222     TIP3     H2       HT       0.417000       1.00800           0
     24243 TIP3     5223     TIP3     OH2      OT      -0.834000       15.9994           0
     24244 TIP3     5223     TIP3     H1       HT       0.417000       1.00800           0
     24245 TIP3     5223     TIP3     H2       HT       0.417000       1.00800           0
     24246 TIP3     5224     TIP3     OH2      OT      -0.834000       15.9994           0
     24247 TIP3     5224     TIP3     H1       HT       0.417000       1.00800           0
     24248 TIP3     5224     TIP3     H2       HT       0.417000       1.00800           0
     24249 TIP3     5225     TIP3     OH2      OT      -0.834000       15.9994           0
     24250 TIP3     5225     TIP3     H1       HT       0.417000       1.00800           0
     24251 TIP3     5225     TIP3     H2       HT       0.417000       1.00800           0
     24252 TIP3     5226     TIP3     OH2      OT      -0.834000       15.9994           0
     24253 TIP3     5226     TIP3     H1       HT       0.417000       1.00800           0
     24254 TIP3     5226     TIP3     H2       HT       0.417000       1.00800           0
     24255 TIP3     5227     TIP3     OH2      OT      -0.834000       15.9994           0
     24256 TIP3     5227     TIP3     H1       HT       0.417000       1.00800           0
     24257 TIP3     5227     TIP3     H2       HT       0.417000       1.00800           0
     24258 TIP3     5228     TIP3     OH2      OT      -0.834000       15.9994           0
     24259 TIP3     5228     TIP3     H1       HT       0.417000       1.00800           0
     24260 TIP3     5228     TIP3     H2       HT       0.417000       1.00800           0
     24261 TIP3     5229     TIP3     OH2      OT      -0.834000       15.9994           0
     24262 TIP3     5229     TIP3     H1       HT       0.417000       1.00800           0
     24263 TIP3     5229     TIP3     H2       HT       0.417000       1.00800           0
     24264 TIP3     5230     TIP3     OH2      OT      -0.834000       15.9994           0
     24265 TIP3     5230     TIP3     H1       HT       0.417000       1.00800           0
     24266 TIP3     5230     TIP3     H2       HT       0.417000       1.00800           0
     24267 TIP3     5231     TIP3     OH2      OT      -0.834000       15.9994           0
     24268 TIP3     5231     TIP3     H1       HT       0.417000       1.00800           0
     24269 TIP3     5231     TIP3     H2       HT       0.417000       1.00800           0
     24270 TIP3     5232     TIP3     OH2      OT      -0.834000       15.9994           0
     24271 TIP3     5232     TIP3     H1       HT       0.417000       1.00800           0
     24272 TIP3     5232     TIP3     H2       HT       0.417000       1.00800           0
     24273 TIP3     5233     TIP3     OH2      OT      -0.834000       15.9994           0
     24274 TIP3     5233     TIP3     H1       HT       0.417000       1.00800           0
     24275 TIP3     5233     TIP3     H2       HT       0.417000       1.00800           0
     24276 TIP3     5234     TIP3     OH2      OT      -0.834000       15.9994           0
     24277 TIP3     5234     TIP3     H1       HT       0.417000       1.00800           0
     24278 TIP3     5234     TIP3     H2       HT       0.417000       1.00800           0
     24279 TIP3     5235     TIP3     OH2      OT      -0.834000       15.9994           0
     24280 TIP3     5235     TIP3     H1       HT       0.417000       1.00800           0
     24281 TIP3     5235     TIP3     H2       HT       0.417000       1.00800           0
     24282 TIP3     5236     TIP3     OH2      OT      -0.834000       15.9994           0
     24283 TIP3     5236     TIP3     H1       HT       0.417000       1.00800           0
     24284 TIP3     5236     TIP3     H2       HT       0.417000       1.00800           0
     24285 TIP3     5237     TIP3     OH2      OT      -0.834000       15.9994           0
     24286 TIP3     5237     TIP3     H1       HT       0.417000       1.00800           0
     24287 TIP3     5237     TIP3     H2       HT       0.417000       1.00800           0
     24288 TIP3     5238     TIP3     OH2      OT      -0.834000       15.9994           0
     24289 TIP3     5238     TIP3     H1       HT       0.417000       1.00800           0
     24290 TIP3     5238     TIP3     H2       HT       0.417000       1.00800           0
     24291 TIP3     5239     TIP3     OH2      OT      -0.834000       15.9994           0
     24292 TIP3     5239     TIP3     H1       HT       0.417000       1.00800           0
     24293 TIP3     5239     TIP3     H2       HT       0.417000       1.00800           0
     24294 TIP3     5240     TIP3     OH2      OT      -0.834000       15.9994           0
     24295 TIP3     5240     TIP3     H1       HT       0.417000       1.00800           0
     24296 TIP3     5240     TIP3     H2       HT       0.417000       1.00800           0
     24297 TIP3     5241     TIP3     OH2      OT      -0.834000       15.9994           0
     24298 TIP3     5241     TIP3     H1       HT       0.417000       1.00800           0
     24299 TIP3     5241     TIP3     H2       HT       0.417000       1.00800           0
     24300 TIP3     5242     TIP3     OH2      OT      -0.834000       15.9994           0
     24301 TIP3     5242     TIP3     H1       HT       0.417000       1.00800           0
     24302 TIP3     5242     TIP3     H2       HT       0.417000       1.00800           0
     24303 TIP3     5243     TIP3     OH2      OT      -0.834000       15.9994           0
     24304 TIP3     5243     TIP3     H1       HT       0.417000       1.00800           0
     24305 TIP3     5243     TIP3     H2       HT       0.417000       1.00800           0
     24306 TIP3     5244     TIP3     OH2      OT      -0.834000       15.9994           0
     24307 TIP3     5244     TIP3     H1       HT       0.417000       1.00800           0
     24308 TIP3     5244     TIP3     H2       HT       0.417000       1.00800           0
     24309 TIP3     5245     TIP3     OH2      OT      -0.834000       15.9994           0
     24310 TIP3     5245     TIP3     H1       HT       0.417000       1.00800           0
     24311 TIP3     5245     TIP3     H2       HT       0.417000       1.00800           0
     24312 TIP3     5246     TIP3     OH2      OT      -0.834000       15.9994           0
     24313 TIP3     5246     TIP3     H1       HT       0.417000       1.00800           0
     24314 TIP3     5246     TIP3     H2       HT       0.417000       1.00800           0
     24315 TIP3     5247     TIP3     OH2      OT      -0.834000       15.9994           0
     24316 TIP3     5247     TIP3     H1       HT       0.417000       1.00800           0
     24317 TIP3     5247     TIP3     H2       HT       0.417000       1.00800           0
     24318 TIP3     5248     TIP3     OH2      OT      -0.834000       15.9994           0
     24319 TIP3     5248     TIP3     H1       HT       0.417000       1.00800           0
     24320 TIP3     5248     TIP3     H2       HT       0.417000       1.00800           0
     24321 TIP3     5249     TIP3     OH2      OT      -0.834000       15.9994           0
     24322 TIP3     5249     TIP3     H1       HT       0.417000       1.00800           0
     24323 TIP3     5249     TIP3     H2       HT       0.417000       1.00800           0
     24324 TIP3     5250     TIP3     OH2      OT      -0.834000       15.9994           0
     24325 TIP3     5250     TIP3     H1       HT       0.417000       1.00800           0
     24326 TIP3     5250     TIP3     H2       HT       0.417000       1.00800           0
     24327 TIP3     5251     TIP3     OH2      OT      -0.834000       15.9994           0
     24328 TIP3     5251     TIP3     H1       HT       0.417000       1.00800           0
     24329 TIP3     5251     TIP3     H2       HT       0.417000       1.00800           0
     24330 TIP3     5252     TIP3     OH2      OT      -0.834000       15.9994           0
     24331 TIP3     5252     TIP3     H1       HT       0.417000       1.00800           0
     24332 TIP3     5252     TIP3     H2       HT       0.417000       1.00800           0
     24333 TIP3     5253     TIP3     OH2      OT      -0.834000       15.9994           0
     24334 TIP3     5253     TIP3     H1       HT       0.417000       1.00800           0
     24335 TIP3     5253     TIP3     H2       HT       0.417000       1.00800           0
     24336 TIP3     5254     TIP3     OH2      OT      -0.834000       15.9994           0
     24337 TIP3     5254     TIP3     H1       HT       0.417000       1.00800           0
     24338 TIP3     5254     TIP3     H2       HT       0.417000       1.00800           0
     24339 TIP3     5255     TIP3     OH2      OT      -0.834000       15.9994           0
     24340 TIP3     5255     TIP3     H1       HT       0.417000       1.00800           0
     24341 TIP3     5255     TIP3     H2       HT       0.417000       1.00800           0
     24342 TIP3     5256     TIP3     OH2      OT      -0.834000       15.9994           0
     24343 TIP3     5256     TIP3     H1       HT       0.417000       1.00800           0
     24344 TIP3     5256     TIP3     H2       HT       0.417000       1.00800           0
     24345 TIP3     5257     TIP3     OH2      OT      -0.834000       15.9994           0
     24346 TIP3     5257     TIP3     H1       HT       0.417000       1.00800           0
     24347 TIP3     5257     TIP3     H2       HT       0.417000       1.00800           0
     24348 TIP3     5258     TIP3     OH2      OT      -0.834000       15.9994           0
     24349 TIP3     5258     TIP3     H1       HT       0.417000       1.00800           0
     24350 TIP3     5258     TIP3     H2       HT       0.417000       1.00800           0
     24351 TIP3     5259     TIP3     OH2      OT      -0.834000       15.9994           0
     24352 TIP3     5259     TIP3     H1       HT       0.417000       1.00800           0
     24353 TIP3     5259     TIP3     H2       HT       0.417000       1.00800           0
     24354 TIP3     5260     TIP3     OH2      OT      -0.834000       15.9994           0
     24355 TIP3     5260     TIP3     H1       HT       0.417000       1.00800           0
     24356 TIP3     5260     TIP3     H2       HT       0.417000       1.00800           0
     24357 TIP3     5261     TIP3     OH2      OT      -0.834000       15.9994           0
     24358 TIP3     5261     TIP3     H1       HT       0.417000       1.00800           0
     24359 TIP3     5261     TIP3     H2       HT       0.417000       1.00800           0
     24360 TIP3     5262     TIP3     OH2      OT      -0.834000       15.9994           0
     24361 TIP3     5262     TIP3     H1       HT       0.417000       1.00800           0
     24362 TIP3     5262     TIP3     H2       HT       0.417000       1.00800           0
     24363 TIP3     5263     TIP3     OH2      OT      -0.834000       15.9994           0
     24364 TIP3     5263     TIP3     H1       HT       0.417000       1.00800           0
     24365 TIP3     5263     TIP3     H2       HT       0.417000       1.00800           0
     24366 TIP3     5264     TIP3     OH2      OT      -0.834000       15.9994           0
     24367 TIP3     5264     TIP3     H1       HT       0.417000       1.00800           0
     24368 TIP3     5264     TIP3     H2       HT       0.417000       1.00800           0
     24369 TIP3     5265     TIP3     OH2      OT      -0.834000       15.9994           0
     24370 TIP3     5265     TIP3     H1       HT       0.417000       1.00800           0
     24371 TIP3     5265     TIP3     H2       HT       0.417000       1.00800           0
     24372 TIP3     5266     TIP3     OH2      OT      -0.834000       15.9994           0
     24373 TIP3     5266     TIP3     H1       HT       0.417000       1.00800           0
     24374 TIP3     5266     TIP3     H2       HT       0.417000       1.00800           0
     24375 TIP3     5267     TIP3     OH2      OT      -0.834000       15.9994           0
     24376 TIP3     5267     TIP3     H1       HT       0.417000       1.00800           0
     24377 TIP3     5267     TIP3     H2       HT       0.417000       1.00800           0
     24378 TIP3     5268     TIP3     OH2      OT      -0.834000       15.9994           0
     24379 TIP3     5268     TIP3     H1       HT       0.417000       1.00800           0
     24380 TIP3     5268     TIP3     H2       HT       0.417000       1.00800           0
     24381 TIP3     5269     TIP3     OH2      OT      -0.834000       15.9994           0
     24382 TIP3     5269     TIP3     H1       HT       0.417000       1.00800           0
     24383 TIP3     5269     TIP3     H2       HT       0.417000       1.00800           0
     24384 TIP3     5270     TIP3     OH2      OT      -0.834000       15.9994           0
     24385 TIP3     5270     TIP3     H1       HT       0.417000       1.00800           0
     24386 TIP3     5270     TIP3     H2       HT       0.417000       1.00800           0
     24387 TIP3     5271     TIP3     OH2      OT      -0.834000       15.9994           0
     24388 TIP3     5271     TIP3     H1       HT       0.417000       1.00800           0
     24389 TIP3     5271     TIP3     H2       HT       0.417000       1.00800           0
     24390 TIP3     5272     TIP3     OH2      OT      -0.834000       15.9994           0
     24391 TIP3     5272     TIP3     H1       HT       0.417000       1.00800           0
     24392 TIP3     5272     TIP3     H2       HT       0.417000       1.00800           0
     24393 TIP3     5273     TIP3     OH2      OT      -0.834000       15.9994           0
     24394 TIP3     5273     TIP3     H1       HT       0.417000       1.00800           0
     24395 TIP3     5273     TIP3     H2       HT       0.417000       1.00800           0
     24396 TIP3     5274     TIP3     OH2      OT      -0.834000       15.9994           0
     24397 TIP3     5274     TIP3     H1       HT       0.417000       1.00800           0
     24398 TIP3     5274     TIP3     H2       HT       0.417000       1.00800           0
     24399 TIP3     5275     TIP3     OH2      OT      -0.834000       15.9994           0
     24400 TIP3     5275     TIP3     H1       HT       0.417000       1.00800           0
     24401 TIP3     5275     TIP3     H2       HT       0.417000       1.00800           0
     24402 TIP3     5276     TIP3     OH2      OT      -0.834000       15.9994           0
     24403 TIP3     5276     TIP3     H1       HT       0.417000       1.00800           0
     24404 TIP3     5276     TIP3     H2       HT       0.417000       1.00800           0
     24405 TIP3     5277     TIP3     OH2      OT      -0.834000       15.9994           0
     24406 TIP3     5277     TIP3     H1       HT       0.417000       1.00800           0
     24407 TIP3     5277     TIP3     H2       HT       0.417000       1.00800           0
     24408 TIP3     5278     TIP3     OH2      OT      -0.834000       15.9994           0
     24409 TIP3     5278     TIP3     H1       HT       0.417000       1.00800           0
     24410 TIP3     5278     TIP3     H2       HT       0.417000       1.00800           0
     24411 TIP3     5279     TIP3     OH2      OT      -0.834000       15.9994           0
     24412 TIP3     5279     TIP3     H1       HT       0.417000       1.00800           0
     24413 TIP3     5279     TIP3     H2       HT       0.417000       1.00800           0
     24414 TIP3     5280     TIP3     OH2      OT      -0.834000       15.9994           0
     24415 TIP3     5280     TIP3     H1       HT       0.417000       1.00800           0
     24416 TIP3     5280     TIP3     H2       HT       0.417000       1.00800           0
     24417 TIP3     5281     TIP3     OH2      OT      -0.834000       15.9994           0
     24418 TIP3     5281     TIP3     H1       HT       0.417000       1.00800           0
     24419 TIP3     5281     TIP3     H2       HT       0.417000       1.00800           0
     24420 TIP3     5282     TIP3     OH2      OT      -0.834000       15.9994           0
     24421 TIP3     5282     TIP3     H1       HT       0.417000       1.00800           0
     24422 TIP3     5282     TIP3     H2       HT       0.417000       1.00800           0
     24423 TIP3     5283     TIP3     OH2      OT      -0.834000       15.9994           0
     24424 TIP3     5283     TIP3     H1       HT       0.417000       1.00800           0
     24425 TIP3     5283     TIP3     H2       HT       0.417000       1.00800           0
     24426 TIP3     5284     TIP3     OH2      OT      -0.834000       15.9994           0
     24427 TIP3     5284     TIP3     H1       HT       0.417000       1.00800           0
     24428 TIP3     5284     TIP3     H2       HT       0.417000       1.00800           0
     24429 TIP3     5285     TIP3     OH2      OT      -0.834000       15.9994           0
     24430 TIP3     5285     TIP3     H1       HT       0.417000       1.00800           0
     24431 TIP3     5285     TIP3     H2       HT       0.417000       1.00800           0
     24432 TIP3     5286     TIP3     OH2      OT      -0.834000       15.9994           0
     24433 TIP3     5286     TIP3     H1       HT       0.417000       1.00800           0
     24434 TIP3     5286     TIP3     H2       HT       0.417000       1.00800           0
     24435 TIP3     5287     TIP3     OH2      OT      -0.834000       15.9994           0
     24436 TIP3     5287     TIP3     H1       HT       0.417000       1.00800           0
     24437 TIP3     5287     TIP3     H2       HT       0.417000       1.00800           0
     24438 TIP3     5288     TIP3     OH2      OT      -0.834000       15.9994           0
     24439 TIP3     5288     TIP3     H1       HT       0.417000       1.00800           0
     24440 TIP3     5288     TIP3     H2       HT       0.417000       1.00800           0
     24441 TIP3     5289     TIP3     OH2      OT      -0.834000       15.9994           0
     24442 TIP3     5289     TIP3     H1       HT       0.417000       1.00800           0
     24443 TIP3     5289     TIP3     H2       HT       0.417000       1.00800           0
     24444 TIP3     5290     TIP3     OH2      OT      -0.834000       15.9994           0
     24445 TIP3     5290     TIP3     H1       HT       0.417000       1.00800           0
     24446 TIP3     5290     TIP3     H2       HT       0.417000       1.00800           0
     24447 TIP3     5291     TIP3     OH2      OT      -0.834000       15.9994           0
     24448 TIP3     5291     TIP3     H1       HT       0.417000       1.00800           0
     24449 TIP3     5291     TIP3     H2       HT       0.417000       1.00800           0
     24450 TIP3     5292     TIP3     OH2      OT      -0.834000       15.9994           0
     24451 TIP3     5292     TIP3     H1       HT       0.417000       1.00800           0
     24452 TIP3     5292     TIP3     H2       HT       0.417000       1.00800           0
     24453 TIP3     5293     TIP3     OH2      OT      -0.834000       15.9994           0
     24454 TIP3     5293     TIP3     H1       HT       0.417000       1.00800           0
     24455 TIP3     5293     TIP3     H2       HT       0.417000       1.00800           0
     24456 TIP3     5294     TIP3     OH2      OT      -0.834000       15.9994           0
     24457 TIP3     5294     TIP3     H1       HT       0.417000       1.00800           0
     24458 TIP3     5294     TIP3     H2       HT       0.417000       1.00800           0
     24459 TIP3     5295     TIP3     OH2      OT      -0.834000       15.9994           0
     24460 TIP3     5295     TIP3     H1       HT       0.417000       1.00800           0
     24461 TIP3     5295     TIP3     H2       HT       0.417000       1.00800           0
     24462 TIP3     5296     TIP3     OH2      OT      -0.834000       15.9994           0
     24463 TIP3     5296     TIP3     H1       HT       0.417000       1.00800           0
     24464 TIP3     5296     TIP3     H2       HT       0.417000       1.00800           0
     24465 TIP3     5297     TIP3     OH2      OT      -0.834000       15.9994           0
     24466 TIP3     5297     TIP3     H1       HT       0.417000       1.00800           0
     24467 TIP3     5297     TIP3     H2       HT       0.417000       1.00800           0
     24468 TIP3     5298     TIP3     OH2      OT      -0.834000       15.9994           0
     24469 TIP3     5298     TIP3     H1       HT       0.417000       1.00800           0
     24470 TIP3     5298     TIP3     H2       HT       0.417000       1.00800           0
     24471 TIP3     5299     TIP3     OH2      OT      -0.834000       15.9994           0
     24472 TIP3     5299     TIP3     H1       HT       0.417000       1.00800           0
     24473 TIP3     5299     TIP3     H2       HT       0.417000       1.00800           0
     24474 TIP3     5300     TIP3     OH2      OT      -0.834000       15.9994           0
     24475 TIP3     5300     TIP3     H1       HT       0.417000       1.00800           0
     24476 TIP3     5300     TIP3     H2       HT       0.417000       1.00800           0
     24477 TIP3     5301     TIP3     OH2      OT      -0.834000       15.9994           0
     24478 TIP3     5301     TIP3     H1       HT       0.417000       1.00800           0
     24479 TIP3     5301     TIP3     H2       HT       0.417000       1.00800           0
     24480 TIP3     5302     TIP3     OH2      OT      -0.834000       15.9994           0
     24481 TIP3     5302     TIP3     H1       HT       0.417000       1.00800           0
     24482 TIP3     5302     TIP3     H2       HT       0.417000       1.00800           0
     24483 TIP3     5303     TIP3     OH2      OT      -0.834000       15.9994           0
     24484 TIP3     5303     TIP3     H1       HT       0.417000       1.00800           0
     24485 TIP3     5303     TIP3     H2       HT       0.417000       1.00800           0
     24486 TIP3     5304     TIP3     OH2      OT      -0.834000       15.9994           0
     24487 TIP3     5304     TIP3     H1       HT       0.417000       1.00800           0
     24488 TIP3     5304     TIP3     H2       HT       0.417000       1.00800           0
     24489 TIP3     5305     TIP3     OH2      OT      -0.834000       15.9994           0
     24490 TIP3     5305     TIP3     H1       HT       0.417000       1.00800           0
     24491 TIP3     5305     TIP3     H2       HT       0.417000       1.00800           0
     24492 TIP3     5306     TIP3     OH2      OT      -0.834000       15.9994           0
     24493 TIP3     5306     TIP3     H1       HT       0.417000       1.00800           0
     24494 TIP3     5306     TIP3     H2       HT       0.417000       1.00800           0
     24495 TIP3     5307     TIP3     OH2      OT      -0.834000       15.9994           0
     24496 TIP3     5307     TIP3     H1       HT       0.417000       1.00800           0
     24497 TIP3     5307     TIP3     H2       HT       0.417000       1.00800           0
     24498 TIP3     5308     TIP3     OH2      OT      -0.834000       15.9994           0
     24499 TIP3     5308     TIP3     H1       HT       0.417000       1.00800           0
     24500 TIP3     5308     TIP3     H2       HT       0.417000       1.00800           0
     24501 TIP3     5309     TIP3     OH2      OT      -0.834000       15.9994           0
     24502 TIP3     5309     TIP3     H1       HT       0.417000       1.00800           0
     24503 TIP3     5309     TIP3     H2       HT       0.417000       1.00800           0
     24504 TIP3     5310     TIP3     OH2      OT      -0.834000       15.9994           0
     24505 TIP3     5310     TIP3     H1       HT       0.417000       1.00800           0
     24506 TIP3     5310     TIP3     H2       HT       0.417000       1.00800           0
     24507 TIP3     5311     TIP3     OH2      OT      -0.834000       15.9994           0
     24508 TIP3     5311     TIP3     H1       HT       0.417000       1.00800           0
     24509 TIP3     5311     TIP3     H2       HT       0.417000       1.00800           0
     24510 TIP3     5312     TIP3     OH2      OT      -0.834000       15.9994           0
     24511 TIP3     5312     TIP3     H1       HT       0.417000       1.00800           0
     24512 TIP3     5312     TIP3     H2       HT       0.417000       1.00800           0
     24513 TIP3     5313     TIP3     OH2      OT      -0.834000       15.9994           0
     24514 TIP3     5313     TIP3     H1       HT       0.417000       1.00800           0
     24515 TIP3     5313     TIP3     H2       HT       0.417000       1.00800           0
     24516 TIP3     5314     TIP3     OH2      OT      -0.834000       15.9994           0
     24517 TIP3     5314     TIP3     H1       HT       0.417000       1.00800           0
     24518 TIP3     5314     TIP3     H2       HT       0.417000       1.00800           0
     24519 TIP3     5315     TIP3     OH2      OT      -0.834000       15.9994           0
     24520 TIP3     5315     TIP3     H1       HT       0.417000       1.00800           0
     24521 TIP3     5315     TIP3     H2       HT       0.417000       1.00800           0
     24522 TIP3     5316     TIP3     OH2      OT      -0.834000       15.9994           0
     24523 TIP3     5316     TIP3     H1       HT       0.417000       1.00800           0
     24524 TIP3     5316     TIP3     H2       HT       0.417000       1.00800           0
     24525 TIP3     5317     TIP3     OH2      OT      -0.834000       15.9994           0
     24526 TIP3     5317     TIP3     H1       HT       0.417000       1.00800           0
     24527 TIP3     5317     TIP3     H2       HT       0.417000       1.00800           0
     24528 TIP3     5318     TIP3     OH2      OT      -0.834000       15.9994           0
     24529 TIP3     5318     TIP3     H1       HT       0.417000       1.00800           0
     24530 TIP3     5318     TIP3     H2       HT       0.417000       1.00800           0
     24531 TIP3     5319     TIP3     OH2      OT      -0.834000       15.9994           0
     24532 TIP3     5319     TIP3     H1       HT       0.417000       1.00800           0
     24533 TIP3     5319     TIP3     H2       HT       0.417000       1.00800           0
     24534 TIP3     5320     TIP3     OH2      OT      -0.834000       15.9994           0
     24535 TIP3     5320     TIP3     H1       HT       0.417000       1.00800           0
     24536 TIP3     5320     TIP3     H2       HT       0.417000       1.00800           0
     24537 TIP3     5321     TIP3     OH2      OT      -0.834000       15.9994           0
     24538 TIP3     5321     TIP3     H1       HT       0.417000       1.00800           0
     24539 TIP3     5321     TIP3     H2       HT       0.417000       1.00800           0
     24540 TIP3     5322     TIP3     OH2      OT      -0.834000       15.9994           0
     24541 TIP3     5322     TIP3     H1       HT       0.417000       1.00800           0
     24542 TIP3     5322     TIP3     H2       HT       0.417000       1.00800           0
     24543 TIP3     5323     TIP3     OH2      OT      -0.834000       15.9994           0
     24544 TIP3     5323     TIP3     H1       HT       0.417000       1.00800           0
     24545 TIP3     5323     TIP3     H2       HT       0.417000       1.00800           0
     24546 TIP3     5324     TIP3     OH2      OT      -0.834000       15.9994           0
     24547 TIP3     5324     TIP3     H1       HT       0.417000       1.00800           0
     24548 TIP3     5324     TIP3     H2       HT       0.417000       1.00800           0
     24549 TIP3     5325     TIP3     OH2      OT      -0.834000       15.9994           0
     24550 TIP3     5325     TIP3     H1       HT       0.417000       1.00800           0
     24551 TIP3     5325     TIP3     H2       HT       0.417000       1.00800           0
     24552 TIP3     5326     TIP3     OH2      OT      -0.834000       15.9994           0
     24553 TIP3     5326     TIP3     H1       HT       0.417000       1.00800           0
     24554 TIP3     5326     TIP3     H2       HT       0.417000       1.00800           0
     24555 TIP3     5327     TIP3     OH2      OT      -0.834000       15.9994           0
     24556 TIP3     5327     TIP3     H1       HT       0.417000       1.00800           0
     24557 TIP3     5327     TIP3     H2       HT       0.417000       1.00800           0
     24558 TIP3     5328     TIP3     OH2      OT      -0.834000       15.9994           0
     24559 TIP3     5328     TIP3     H1       HT       0.417000       1.00800           0
     24560 TIP3     5328     TIP3     H2       HT       0.417000       1.00800           0
     24561 TIP3     5329     TIP3     OH2      OT      -0.834000       15.9994           0
     24562 TIP3     5329     TIP3     H1       HT       0.417000       1.00800           0
     24563 TIP3     5329     TIP3     H2       HT       0.417000       1.00800           0
     24564 TIP3     5330     TIP3     OH2      OT      -0.834000       15.9994           0
     24565 TIP3     5330     TIP3     H1       HT       0.417000       1.00800           0
     24566 TIP3     5330     TIP3     H2       HT       0.417000       1.00800           0
     24567 TIP3     5331     TIP3     OH2      OT      -0.834000       15.9994           0
     24568 TIP3     5331     TIP3     H1       HT       0.417000       1.00800           0
     24569 TIP3     5331     TIP3     H2       HT       0.417000       1.00800           0
     24570 TIP3     5332     TIP3     OH2      OT      -0.834000       15.9994           0
     24571 TIP3     5332     TIP3     H1       HT       0.417000       1.00800           0
     24572 TIP3     5332     TIP3     H2       HT       0.417000       1.00800           0
     24573 TIP3     5333     TIP3     OH2      OT      -0.834000       15.9994           0
     24574 TIP3     5333     TIP3     H1       HT       0.417000       1.00800           0
     24575 TIP3     5333     TIP3     H2       HT       0.417000       1.00800           0
     24576 TIP3     5334     TIP3     OH2      OT      -0.834000       15.9994           0
     24577 TIP3     5334     TIP3     H1       HT       0.417000       1.00800           0
     24578 TIP3     5334     TIP3     H2       HT       0.417000       1.00800           0
     24579 TIP3     5335     TIP3     OH2      OT      -0.834000       15.9994           0
     24580 TIP3     5335     TIP3     H1       HT       0.417000       1.00800           0
     24581 TIP3     5335     TIP3     H2       HT       0.417000       1.00800           0
     24582 TIP3     5336     TIP3     OH2      OT      -0.834000       15.9994           0
     24583 TIP3     5336     TIP3     H1       HT       0.417000       1.00800           0
     24584 TIP3     5336     TIP3     H2       HT       0.417000       1.00800           0
     24585 TIP3     5337     TIP3     OH2      OT      -0.834000       15.9994           0
     24586 TIP3     5337     TIP3     H1       HT       0.417000       1.00800           0
     24587 TIP3     5337     TIP3     H2       HT       0.417000       1.00800           0
     24588 TIP3     5338     TIP3     OH2      OT      -0.834000       15.9994           0
     24589 TIP3     5338     TIP3     H1       HT       0.417000       1.00800           0
     24590 TIP3     5338     TIP3     H2       HT       0.417000       1.00800           0
     24591 TIP3     5339     TIP3     OH2      OT      -0.834000       15.9994           0
     24592 TIP3     5339     TIP3     H1       HT       0.417000       1.00800           0
     24593 TIP3     5339     TIP3     H2       HT       0.417000       1.00800           0
     24594 TIP3     5340     TIP3     OH2      OT      -0.834000       15.9994           0
     24595 TIP3     5340     TIP3     H1       HT       0.417000       1.00800           0
     24596 TIP3     5340     TIP3     H2       HT       0.417000       1.00800           0
     24597 TIP3     5341     TIP3     OH2      OT      -0.834000       15.9994           0
     24598 TIP3     5341     TIP3     H1       HT       0.417000       1.00800           0
     24599 TIP3     5341     TIP3     H2       HT       0.417000       1.00800           0
     24600 TIP3     5342     TIP3     OH2      OT      -0.834000       15.9994           0
     24601 TIP3     5342     TIP3     H1       HT       0.417000       1.00800           0
     24602 TIP3     5342     TIP3     H2       HT       0.417000       1.00800           0
     24603 TIP3     5343     TIP3     OH2      OT      -0.834000       15.9994           0
     24604 TIP3     5343     TIP3     H1       HT       0.417000       1.00800           0
     24605 TIP3     5343     TIP3     H2       HT       0.417000       1.00800           0
     24606 TIP3     5344     TIP3     OH2      OT      -0.834000       15.9994           0
     24607 TIP3     5344     TIP3     H1       HT       0.417000       1.00800           0
     24608 TIP3     5344     TIP3     H2       HT       0.417000       1.00800           0
     24609 TIP3     5345     TIP3     OH2      OT      -0.834000       15.9994           0
     24610 TIP3     5345     TIP3     H1       HT       0.417000       1.00800           0
     24611 TIP3     5345     TIP3     H2       HT       0.417000       1.00800           0
     24612 TIP3     5346     TIP3     OH2      OT      -0.834000       15.9994           0
     24613 TIP3     5346     TIP3     H1       HT       0.417000       1.00800           0
     24614 TIP3     5346     TIP3     H2       HT       0.417000       1.00800           0
     24615 TIP3     5347     TIP3     OH2      OT      -0.834000       15.9994           0
     24616 TIP3     5347     TIP3     H1       HT       0.417000       1.00800           0
     24617 TIP3     5347     TIP3     H2       HT       0.417000       1.00800           0
     24618 TIP3     5348     TIP3     OH2      OT      -0.834000       15.9994           0
     24619 TIP3     5348     TIP3     H1       HT       0.417000       1.00800           0
     24620 TIP3     5348     TIP3     H2       HT       0.417000       1.00800           0
     24621 TIP3     5349     TIP3     OH2      OT      -0.834000       15.9994           0
     24622 TIP3     5349     TIP3     H1       HT       0.417000       1.00800           0
     24623 TIP3     5349     TIP3     H2       HT       0.417000       1.00800           0
     24624 TIP3     5350     TIP3     OH2      OT      -0.834000       15.9994           0
     24625 TIP3     5350     TIP3     H1       HT       0.417000       1.00800           0
     24626 TIP3     5350     TIP3     H2       HT       0.417000       1.00800           0
     24627 TIP3     5351     TIP3     OH2      OT      -0.834000       15.9994           0
     24628 TIP3     5351     TIP3     H1       HT       0.417000       1.00800           0
     24629 TIP3     5351     TIP3     H2       HT       0.417000       1.00800           0
     24630 TIP3     5352     TIP3     OH2      OT      -0.834000       15.9994           0
     24631 TIP3     5352     TIP3     H1       HT       0.417000       1.00800           0
     24632 TIP3     5352     TIP3     H2       HT       0.417000       1.00800           0
     24633 TIP3     5353     TIP3     OH2      OT      -0.834000       15.9994           0
     24634 TIP3     5353     TIP3     H1       HT       0.417000       1.00800           0
     24635 TIP3     5353     TIP3     H2       HT       0.417000       1.00800           0
     24636 TIP3     5354     TIP3     OH2      OT      -0.834000       15.9994           0
     24637 TIP3     5354     TIP3     H1       HT       0.417000       1.00800           0
     24638 TIP3     5354     TIP3     H2       HT       0.417000       1.00800           0
     24639 TIP3     5355     TIP3     OH2      OT      -0.834000       15.9994           0
     24640 TIP3     5355     TIP3     H1       HT       0.417000       1.00800           0
     24641 TIP3     5355     TIP3     H2       HT       0.417000       1.00800           0
     24642 TIP3     5356     TIP3     OH2      OT      -0.834000       15.9994           0
     24643 TIP3     5356     TIP3     H1       HT       0.417000       1.00800           0
     24644 TIP3     5356     TIP3     H2       HT       0.417000       1.00800           0
     24645 TIP3     5357     TIP3     OH2      OT      -0.834000       15.9994           0
     24646 TIP3     5357     TIP3     H1       HT       0.417000       1.00800           0
     24647 TIP3     5357     TIP3     H2       HT       0.417000       1.00800           0
     24648 TIP3     5358     TIP3     OH2      OT      -0.834000       15.9994           0
     24649 TIP3     5358     TIP3     H1       HT       0.417000       1.00800           0
     24650 TIP3     5358     TIP3     H2       HT       0.417000       1.00800           0
     24651 TIP3     5359     TIP3     OH2      OT      -0.834000       15.9994           0
     24652 TIP3     5359     TIP3     H1       HT       0.417000       1.00800           0
     24653 TIP3     5359     TIP3     H2       HT       0.417000       1.00800           0
     24654 TIP3     5360     TIP3     OH2      OT      -0.834000       15.9994           0
     24655 TIP3     5360     TIP3     H1       HT       0.417000       1.00800           0
     24656 TIP3     5360     TIP3     H2       HT       0.417000       1.00800           0
     24657 TIP3     5361     TIP3     OH2      OT      -0.834000       15.9994           0
     24658 TIP3     5361     TIP3     H1       HT       0.417000       1.00800           0
     24659 TIP3     5361     TIP3     H2       HT       0.417000       1.00800           0
     24660 TIP3     5362     TIP3     OH2      OT      -0.834000       15.9994           0
     24661 TIP3     5362     TIP3     H1       HT       0.417000       1.00800           0
     24662 TIP3     5362     TIP3     H2       HT       0.417000       1.00800           0
     24663 TIP3     5363     TIP3     OH2      OT      -0.834000       15.9994           0
     24664 TIP3     5363     TIP3     H1       HT       0.417000       1.00800           0
     24665 TIP3     5363     TIP3     H2       HT       0.417000       1.00800           0
     24666 TIP3     5364     TIP3     OH2      OT      -0.834000       15.9994           0
     24667 TIP3     5364     TIP3     H1       HT       0.417000       1.00800           0
     24668 TIP3     5364     TIP3     H2       HT       0.417000       1.00800           0
     24669 TIP3     5365     TIP3     OH2      OT      -0.834000       15.9994           0
     24670 TIP3     5365     TIP3     H1       HT       0.417000       1.00800           0
     24671 TIP3     5365     TIP3     H2       HT       0.417000       1.00800           0
     24672 TIP3     5366     TIP3     OH2      OT      -0.834000       15.9994           0
     24673 TIP3     5366     TIP3     H1       HT       0.417000       1.00800           0
     24674 TIP3     5366     TIP3     H2       HT       0.417000       1.00800           0
     24675 TIP3     5367     TIP3     OH2      OT      -0.834000       15.9994           0
     24676 TIP3     5367     TIP3     H1       HT       0.417000       1.00800           0
     24677 TIP3     5367     TIP3     H2       HT       0.417000       1.00800           0
     24678 TIP3     5368     TIP3     OH2      OT      -0.834000       15.9994           0
     24679 TIP3     5368     TIP3     H1       HT       0.417000       1.00800           0
     24680 TIP3     5368     TIP3     H2       HT       0.417000       1.00800           0
     24681 TIP3     5369     TIP3     OH2      OT      -0.834000       15.9994           0
     24682 TIP3     5369     TIP3     H1       HT       0.417000       1.00800           0
     24683 TIP3     5369     TIP3     H2       HT       0.417000       1.00800           0
     24684 TIP3     5370     TIP3     OH2      OT      -0.834000       15.9994           0
     24685 TIP3     5370     TIP3     H1       HT       0.417000       1.00800           0
     24686 TIP3     5370     TIP3     H2       HT       0.417000       1.00800           0
     24687 TIP3     5371     TIP3     OH2      OT      -0.834000       15.9994           0
     24688 TIP3     5371     TIP3     H1       HT       0.417000       1.00800           0
     24689 TIP3     5371     TIP3     H2       HT       0.417000       1.00800           0
     24690 TIP3     5372     TIP3     OH2      OT      -0.834000       15.9994           0
     24691 TIP3     5372     TIP3     H1       HT       0.417000       1.00800           0
     24692 TIP3     5372     TIP3     H2       HT       0.417000       1.00800           0
     24693 TIP3     5373     TIP3     OH2      OT      -0.834000       15.9994           0
     24694 TIP3     5373     TIP3     H1       HT       0.417000       1.00800           0
     24695 TIP3     5373     TIP3     H2       HT       0.417000       1.00800           0
     24696 TIP3     5374     TIP3     OH2      OT      -0.834000       15.9994           0
     24697 TIP3     5374     TIP3     H1       HT       0.417000       1.00800           0
     24698 TIP3     5374     TIP3     H2       HT       0.417000       1.00800           0
     24699 TIP3     5375     TIP3     OH2      OT      -0.834000       15.9994           0
     24700 TIP3     5375     TIP3     H1       HT       0.417000       1.00800           0
     24701 TIP3     5375     TIP3     H2       HT       0.417000       1.00800           0
     24702 TIP3     5376     TIP3     OH2      OT      -0.834000       15.9994           0
     24703 TIP3     5376     TIP3     H1       HT       0.417000       1.00800           0
     24704 TIP3     5376     TIP3     H2       HT       0.417000       1.00800           0
     24705 TIP3     5377     TIP3     OH2      OT      -0.834000       15.9994           0
     24706 TIP3     5377     TIP3     H1       HT       0.417000       1.00800           0
     24707 TIP3     5377     TIP3     H2       HT       0.417000       1.00800           0
     24708 TIP3     5378     TIP3     OH2      OT      -0.834000       15.9994           0
     24709 TIP3     5378     TIP3     H1       HT       0.417000       1.00800           0
     24710 TIP3     5378     TIP3     H2       HT       0.417000       1.00800           0
     24711 TIP3     5379     TIP3     OH2      OT      -0.834000       15.9994           0
     24712 TIP3     5379     TIP3     H1       HT       0.417000       1.00800           0
     24713 TIP3     5379     TIP3     H2       HT       0.417000       1.00800           0
     24714 TIP3     5380     TIP3     OH2      OT      -0.834000       15.9994           0
     24715 TIP3     5380     TIP3     H1       HT       0.417000       1.00800           0
     24716 TIP3     5380     TIP3     H2       HT       0.417000       1.00800           0
     24717 TIP3     5381     TIP3     OH2      OT      -0.834000       15.9994           0
     24718 TIP3     5381     TIP3     H1       HT       0.417000       1.00800           0
     24719 TIP3     5381     TIP3     H2       HT       0.417000       1.00800           0
     24720 TIP3     5382     TIP3     OH2      OT      -0.834000       15.9994           0
     24721 TIP3     5382     TIP3     H1       HT       0.417000       1.00800           0
     24722 TIP3     5382     TIP3     H2       HT       0.417000       1.00800           0
     24723 TIP3     5383     TIP3     OH2      OT      -0.834000       15.9994           0
     24724 TIP3     5383     TIP3     H1       HT       0.417000       1.00800           0
     24725 TIP3     5383     TIP3     H2       HT       0.417000       1.00800           0
     24726 TIP3     5384     TIP3     OH2      OT      -0.834000       15.9994           0
     24727 TIP3     5384     TIP3     H1       HT       0.417000       1.00800           0
     24728 TIP3     5384     TIP3     H2       HT       0.417000       1.00800           0
     24729 TIP3     5385     TIP3     OH2      OT      -0.834000       15.9994           0
     24730 TIP3     5385     TIP3     H1       HT       0.417000       1.00800           0
     24731 TIP3     5385     TIP3     H2       HT       0.417000       1.00800           0
     24732 TIP3     5386     TIP3     OH2      OT      -0.834000       15.9994           0
     24733 TIP3     5386     TIP3     H1       HT       0.417000       1.00800           0
     24734 TIP3     5386     TIP3     H2       HT       0.417000       1.00800           0
     24735 TIP3     5387     TIP3     OH2      OT      -0.834000       15.9994           0
     24736 TIP3     5387     TIP3     H1       HT       0.417000       1.00800           0
     24737 TIP3     5387     TIP3     H2       HT       0.417000       1.00800           0
     24738 TIP3     5388     TIP3     OH2      OT      -0.834000       15.9994           0
     24739 TIP3     5388     TIP3     H1       HT       0.417000       1.00800           0
     24740 TIP3     5388     TIP3     H2       HT       0.417000       1.00800           0
     24741 TIP3     5389     TIP3     OH2      OT      -0.834000       15.9994           0
     24742 TIP3     5389     TIP3     H1       HT       0.417000       1.00800           0
     24743 TIP3     5389     TIP3     H2       HT       0.417000       1.00800           0
     24744 TIP3     5390     TIP3     OH2      OT      -0.834000       15.9994           0
     24745 TIP3     5390     TIP3     H1       HT       0.417000       1.00800           0
     24746 TIP3     5390     TIP3     H2       HT       0.417000       1.00800           0
     24747 TIP3     5391     TIP3     OH2      OT      -0.834000       15.9994           0
     24748 TIP3     5391     TIP3     H1       HT       0.417000       1.00800           0
     24749 TIP3     5391     TIP3     H2       HT       0.417000       1.00800           0
     24750 TIP3     5392     TIP3     OH2      OT      -0.834000       15.9994           0
     24751 TIP3     5392     TIP3     H1       HT       0.417000       1.00800           0
     24752 TIP3     5392     TIP3     H2       HT       0.417000       1.00800           0
     24753 TIP3     5393     TIP3     OH2      OT      -0.834000       15.9994           0
     24754 TIP3     5393     TIP3     H1       HT       0.417000       1.00800           0
     24755 TIP3     5393     TIP3     H2       HT       0.417000       1.00800           0
     24756 TIP3     5394     TIP3     OH2      OT      -0.834000       15.9994           0
     24757 TIP3     5394     TIP3     H1       HT       0.417000       1.00800           0
     24758 TIP3     5394     TIP3     H2       HT       0.417000       1.00800           0
     24759 TIP3     5395     TIP3     OH2      OT      -0.834000       15.9994           0
     24760 TIP3     5395     TIP3     H1       HT       0.417000       1.00800           0
     24761 TIP3     5395     TIP3     H2       HT       0.417000       1.00800           0
     24762 TIP3     5396     TIP3     OH2      OT      -0.834000       15.9994           0
     24763 TIP3     5396     TIP3     H1       HT       0.417000       1.00800           0
     24764 TIP3     5396     TIP3     H2       HT       0.417000       1.00800           0
     24765 TIP3     5397     TIP3     OH2      OT      -0.834000       15.9994           0
     24766 TIP3     5397     TIP3     H1       HT       0.417000       1.00800           0
     24767 TIP3     5397     TIP3     H2       HT       0.417000       1.00800           0
     24768 TIP3     5398     TIP3     OH2      OT      -0.834000       15.9994           0
     24769 TIP3     5398     TIP3     H1       HT       0.417000       1.00800           0
     24770 TIP3     5398     TIP3     H2       HT       0.417000       1.00800           0
     24771 TIP3     5399     TIP3     OH2      OT      -0.834000       15.9994           0
     24772 TIP3     5399     TIP3     H1       HT       0.417000       1.00800           0
     24773 TIP3     5399     TIP3     H2       HT       0.417000       1.00800           0
     24774 TIP3     5400     TIP3     OH2      OT      -0.834000       15.9994           0
     24775 TIP3     5400     TIP3     H1       HT       0.417000       1.00800           0
     24776 TIP3     5400     TIP3     H2       HT       0.417000       1.00800           0
     24777 TIP3     5401     TIP3     OH2      OT      -0.834000       15.9994           0
     24778 TIP3     5401     TIP3     H1       HT       0.417000       1.00800           0
     24779 TIP3     5401     TIP3     H2       HT       0.417000       1.00800           0
     24780 TIP3     5402     TIP3     OH2      OT      -0.834000       15.9994           0
     24781 TIP3     5402     TIP3     H1       HT       0.417000       1.00800           0
     24782 TIP3     5402     TIP3     H2       HT       0.417000       1.00800           0
     24783 TIP3     5403     TIP3     OH2      OT      -0.834000       15.9994           0
     24784 TIP3     5403     TIP3     H1       HT       0.417000       1.00800           0
     24785 TIP3     5403     TIP3     H2       HT       0.417000       1.00800           0
     24786 TIP3     5404     TIP3     OH2      OT      -0.834000       15.9994           0
     24787 TIP3     5404     TIP3     H1       HT       0.417000       1.00800           0
     24788 TIP3     5404     TIP3     H2       HT       0.417000       1.00800           0
     24789 TIP3     5405     TIP3     OH2      OT      -0.834000       15.9994           0
     24790 TIP3     5405     TIP3     H1       HT       0.417000       1.00800           0
     24791 TIP3     5405     TIP3     H2       HT       0.417000       1.00800           0
     24792 TIP3     5406     TIP3     OH2      OT      -0.834000       15.9994           0
     24793 TIP3     5406     TIP3     H1       HT       0.417000       1.00800           0
     24794 TIP3     5406     TIP3     H2       HT       0.417000       1.00800           0
     24795 TIP3     5407     TIP3     OH2      OT      -0.834000       15.9994           0
     24796 TIP3     5407     TIP3     H1       HT       0.417000       1.00800           0
     24797 TIP3     5407     TIP3     H2       HT       0.417000       1.00800           0
     24798 TIP3     5408     TIP3     OH2      OT      -0.834000       15.9994           0
     24799 TIP3     5408     TIP3     H1       HT       0.417000       1.00800           0
     24800 TIP3     5408     TIP3     H2       HT       0.417000       1.00800           0
     24801 TIP3     5409     TIP3     OH2      OT      -0.834000       15.9994           0
     24802 TIP3     5409     TIP3     H1       HT       0.417000       1.00800           0
     24803 TIP3     5409     TIP3     H2       HT       0.417000       1.00800           0
     24804 TIP3     5410     TIP3     OH2      OT      -0.834000       15.9994           0
     24805 TIP3     5410     TIP3     H1       HT       0.417000       1.00800           0
     24806 TIP3     5410     TIP3     H2       HT       0.417000       1.00800           0
     24807 TIP3     5411     TIP3     OH2      OT      -0.834000       15.9994           0
     24808 TIP3     5411     TIP3     H1       HT       0.417000       1.00800           0
     24809 TIP3     5411     TIP3     H2       HT       0.417000       1.00800           0
     24810 TIP3     5412     TIP3     OH2      OT      -0.834000       15.9994           0
     24811 TIP3     5412     TIP3     H1       HT       0.417000       1.00800           0
     24812 TIP3     5412     TIP3     H2       HT       0.417000       1.00800           0
     24813 TIP3     5413     TIP3     OH2      OT      -0.834000       15.9994           0
     24814 TIP3     5413     TIP3     H1       HT       0.417000       1.00800           0
     24815 TIP3     5413     TIP3     H2       HT       0.417000       1.00800           0
     24816 TIP3     5414     TIP3     OH2      OT      -0.834000       15.9994           0
     24817 TIP3     5414     TIP3     H1       HT       0.417000       1.00800           0
     24818 TIP3     5414     TIP3     H2       HT       0.417000       1.00800           0
     24819 TIP3     5415     TIP3     OH2      OT      -0.834000       15.9994           0
     24820 TIP3     5415     TIP3     H1       HT       0.417000       1.00800           0
     24821 TIP3     5415     TIP3     H2       HT       0.417000       1.00800           0
     24822 TIP3     5416     TIP3     OH2      OT      -0.834000       15.9994           0
     24823 TIP3     5416     TIP3     H1       HT       0.417000       1.00800           0
     24824 TIP3     5416     TIP3     H2       HT       0.417000       1.00800           0
     24825 TIP3     5417     TIP3     OH2      OT      -0.834000       15.9994           0
     24826 TIP3     5417     TIP3     H1       HT       0.417000       1.00800           0
     24827 TIP3     5417     TIP3     H2       HT       0.417000       1.00800           0
     24828 TIP3     5418     TIP3     OH2      OT      -0.834000       15.9994           0
     24829 TIP3     5418     TIP3     H1       HT       0.417000       1.00800           0
     24830 TIP3     5418     TIP3     H2       HT       0.417000       1.00800           0
     24831 TIP3     5419     TIP3     OH2      OT      -0.834000       15.9994           0
     24832 TIP3     5419     TIP3     H1       HT       0.417000       1.00800           0
     24833 TIP3     5419     TIP3     H2       HT       0.417000       1.00800           0
     24834 TIP3     5420     TIP3     OH2      OT      -0.834000       15.9994           0
     24835 TIP3     5420     TIP3     H1       HT       0.417000       1.00800           0
     24836 TIP3     5420     TIP3     H2       HT       0.417000       1.00800           0
     24837 TIP3     5421     TIP3     OH2      OT      -0.834000       15.9994           0
     24838 TIP3     5421     TIP3     H1       HT       0.417000       1.00800           0
     24839 TIP3     5421     TIP3     H2       HT       0.417000       1.00800           0
     24840 TIP3     5422     TIP3     OH2      OT      -0.834000       15.9994           0
     24841 TIP3     5422     TIP3     H1       HT       0.417000       1.00800           0
     24842 TIP3     5422     TIP3     H2       HT       0.417000       1.00800           0
     24843 TIP3     5423     TIP3     OH2      OT      -0.834000       15.9994           0
     24844 TIP3     5423     TIP3     H1       HT       0.417000       1.00800           0
     24845 TIP3     5423     TIP3     H2       HT       0.417000       1.00800           0
     24846 TIP3     5424     TIP3     OH2      OT      -0.834000       15.9994           0
     24847 TIP3     5424     TIP3     H1       HT       0.417000       1.00800           0
     24848 TIP3     5424     TIP3     H2       HT       0.417000       1.00800           0
     24849 TIP3     5425     TIP3     OH2      OT      -0.834000       15.9994           0
     24850 TIP3     5425     TIP3     H1       HT       0.417000       1.00800           0
     24851 TIP3     5425     TIP3     H2       HT       0.417000       1.00800           0
     24852 TIP3     5426     TIP3     OH2      OT      -0.834000       15.9994           0
     24853 TIP3     5426     TIP3     H1       HT       0.417000       1.00800           0
     24854 TIP3     5426     TIP3     H2       HT       0.417000       1.00800           0
     24855 TIP3     5427     TIP3     OH2      OT      -0.834000       15.9994           0
     24856 TIP3     5427     TIP3     H1       HT       0.417000       1.00800           0
     24857 TIP3     5427     TIP3     H2       HT       0.417000       1.00800           0
     24858 TIP3     5428     TIP3     OH2      OT      -0.834000       15.9994           0
     24859 TIP3     5428     TIP3     H1       HT       0.417000       1.00800           0
     24860 TIP3     5428     TIP3     H2       HT       0.417000       1.00800           0
     24861 TIP3     5429     TIP3     OH2      OT      -0.834000       15.9994           0
     24862 TIP3     5429     TIP3     H1       HT       0.417000       1.00800           0
     24863 TIP3     5429     TIP3     H2       HT       0.417000       1.00800           0
     24864 TIP3     5430     TIP3     OH2      OT      -0.834000       15.9994           0
     24865 TIP3     5430     TIP3     H1       HT       0.417000       1.00800           0
     24866 TIP3     5430     TIP3     H2       HT       0.417000       1.00800           0
     24867 TIP3     5431     TIP3     OH2      OT      -0.834000       15.9994           0
     24868 TIP3     5431     TIP3     H1       HT       0.417000       1.00800           0
     24869 TIP3     5431     TIP3     H2       HT       0.417000       1.00800           0
     24870 TIP3     5432     TIP3     OH2      OT      -0.834000       15.9994           0
     24871 TIP3     5432     TIP3     H1       HT       0.417000       1.00800           0
     24872 TIP3     5432     TIP3     H2       HT       0.417000       1.00800           0
     24873 TIP3     5433     TIP3     OH2      OT      -0.834000       15.9994           0
     24874 TIP3     5433     TIP3     H1       HT       0.417000       1.00800           0
     24875 TIP3     5433     TIP3     H2       HT       0.417000       1.00800           0
     24876 TIP3     5434     TIP3     OH2      OT      -0.834000       15.9994           0
     24877 TIP3     5434     TIP3     H1       HT       0.417000       1.00800           0
     24878 TIP3     5434     TIP3     H2       HT       0.417000       1.00800           0
     24879 TIP3     5435     TIP3     OH2      OT      -0.834000       15.9994           0
     24880 TIP3     5435     TIP3     H1       HT       0.417000       1.00800           0
     24881 TIP3     5435     TIP3     H2       HT       0.417000       1.00800           0
     24882 TIP3     5436     TIP3     OH2      OT      -0.834000       15.9994           0
     24883 TIP3     5436     TIP3     H1       HT       0.417000       1.00800           0
     24884 TIP3     5436     TIP3     H2       HT       0.417000       1.00800           0
     24885 TIP3     5437     TIP3     OH2      OT      -0.834000       15.9994           0
     24886 TIP3     5437     TIP3     H1       HT       0.417000       1.00800           0
     24887 TIP3     5437     TIP3     H2       HT       0.417000       1.00800           0
     24888 TIP3     5438     TIP3     OH2      OT      -0.834000       15.9994           0
     24889 TIP3     5438     TIP3     H1       HT       0.417000       1.00800           0
     24890 TIP3     5438     TIP3     H2       HT       0.417000       1.00800           0
     24891 TIP3     5439     TIP3     OH2      OT      -0.834000       15.9994           0
     24892 TIP3     5439     TIP3     H1       HT       0.417000       1.00800           0
     24893 TIP3     5439     TIP3     H2       HT       0.417000       1.00800           0
     24894 TIP3     5440     TIP3     OH2      OT      -0.834000       15.9994           0
     24895 TIP3     5440     TIP3     H1       HT       0.417000       1.00800           0
     24896 TIP3     5440     TIP3     H2       HT       0.417000       1.00800           0
     24897 TIP3     5441     TIP3     OH2      OT      -0.834000       15.9994           0
     24898 TIP3     5441     TIP3     H1       HT       0.417000       1.00800           0
     24899 TIP3     5441     TIP3     H2       HT       0.417000       1.00800           0
     24900 TIP3     5442     TIP3     OH2      OT      -0.834000       15.9994           0
     24901 TIP3     5442     TIP3     H1       HT       0.417000       1.00800           0
     24902 TIP3     5442     TIP3     H2       HT       0.417000       1.00800           0
     24903 TIP3     5443     TIP3     OH2      OT      -0.834000       15.9994           0
     24904 TIP3     5443     TIP3     H1       HT       0.417000       1.00800           0
     24905 TIP3     5443     TIP3     H2       HT       0.417000       1.00800           0
     24906 TIP3     5444     TIP3     OH2      OT      -0.834000       15.9994           0
     24907 TIP3     5444     TIP3     H1       HT       0.417000       1.00800           0
     24908 TIP3     5444     TIP3     H2       HT       0.417000       1.00800           0
     24909 TIP3     5445     TIP3     OH2      OT      -0.834000       15.9994           0
     24910 TIP3     5445     TIP3     H1       HT       0.417000       1.00800           0
     24911 TIP3     5445     TIP3     H2       HT       0.417000       1.00800           0
     24912 TIP3     5446     TIP3     OH2      OT      -0.834000       15.9994           0
     24913 TIP3     5446     TIP3     H1       HT       0.417000       1.00800           0
     24914 TIP3     5446     TIP3     H2       HT       0.417000       1.00800           0
     24915 TIP3     5447     TIP3     OH2      OT      -0.834000       15.9994           0
     24916 TIP3     5447     TIP3     H1       HT       0.417000       1.00800           0
     24917 TIP3     5447     TIP3     H2       HT       0.417000       1.00800           0
     24918 TIP3     5448     TIP3     OH2      OT      -0.834000       15.9994           0
     24919 TIP3     5448     TIP3     H1       HT       0.417000       1.00800           0
     24920 TIP3     5448     TIP3     H2       HT       0.417000       1.00800           0
     24921 TIP3     5449     TIP3     OH2      OT      -0.834000       15.9994           0
     24922 TIP3     5449     TIP3     H1       HT       0.417000       1.00800           0
     24923 TIP3     5449     TIP3     H2       HT       0.417000       1.00800           0
     24924 TIP3     5450     TIP3     OH2      OT      -0.834000       15.9994           0
     24925 TIP3     5450     TIP3     H1       HT       0.417000       1.00800           0
     24926 TIP3     5450     TIP3     H2       HT       0.417000       1.00800           0
     24927 TIP3     5451     TIP3     OH2      OT      -0.834000       15.9994           0
     24928 TIP3     5451     TIP3     H1       HT       0.417000       1.00800           0
     24929 TIP3     5451     TIP3     H2       HT       0.417000       1.00800           0
     24930 TIP3     5452     TIP3     OH2      OT      -0.834000       15.9994           0
     24931 TIP3     5452     TIP3     H1       HT       0.417000       1.00800           0
     24932 TIP3     5452     TIP3     H2       HT       0.417000       1.00800           0
     24933 TIP3     5453     TIP3     OH2      OT      -0.834000       15.9994           0
     24934 TIP3     5453     TIP3     H1       HT       0.417000       1.00800           0
     24935 TIP3     5453     TIP3     H2       HT       0.417000       1.00800           0
     24936 TIP3     5454     TIP3     OH2      OT      -0.834000       15.9994           0
     24937 TIP3     5454     TIP3     H1       HT       0.417000       1.00800           0
     24938 TIP3     5454     TIP3     H2       HT       0.417000       1.00800           0
     24939 TIP3     5455     TIP3     OH2      OT      -0.834000       15.9994           0
     24940 TIP3     5455     TIP3     H1       HT       0.417000       1.00800           0
     24941 TIP3     5455     TIP3     H2       HT       0.417000       1.00800           0
     24942 TIP3     5456     TIP3     OH2      OT      -0.834000       15.9994           0
     24943 TIP3     5456     TIP3     H1       HT       0.417000       1.00800           0
     24944 TIP3     5456     TIP3     H2       HT       0.417000       1.00800           0
     24945 TIP3     5457     TIP3     OH2      OT      -0.834000       15.9994           0
     24946 TIP3     5457     TIP3     H1       HT       0.417000       1.00800           0
     24947 TIP3     5457     TIP3     H2       HT       0.417000       1.00800           0
     24948 TIP3     5458     TIP3     OH2      OT      -0.834000       15.9994           0
     24949 TIP3     5458     TIP3     H1       HT       0.417000       1.00800           0
     24950 TIP3     5458     TIP3     H2       HT       0.417000       1.00800           0
     24951 TIP3     5459     TIP3     OH2      OT      -0.834000       15.9994           0
     24952 TIP3     5459     TIP3     H1       HT       0.417000       1.00800           0
     24953 TIP3     5459     TIP3     H2       HT       0.417000       1.00800           0
     24954 TIP3     5460     TIP3     OH2      OT      -0.834000       15.9994           0
     24955 TIP3     5460     TIP3     H1       HT       0.417000       1.00800           0
     24956 TIP3     5460     TIP3     H2       HT       0.417000       1.00800           0
     24957 TIP3     5461     TIP3     OH2      OT      -0.834000       15.9994           0
     24958 TIP3     5461     TIP3     H1       HT       0.417000       1.00800           0
     24959 TIP3     5461     TIP3     H2       HT       0.417000       1.00800           0
     24960 TIP3     5462     TIP3     OH2      OT      -0.834000       15.9994           0
     24961 TIP3     5462     TIP3     H1       HT       0.417000       1.00800           0
     24962 TIP3     5462     TIP3     H2       HT       0.417000       1.00800           0
     24963 TIP3     5463     TIP3     OH2      OT      -0.834000       15.9994           0
     24964 TIP3     5463     TIP3     H1       HT       0.417000       1.00800           0
     24965 TIP3     5463     TIP3     H2       HT       0.417000       1.00800           0
     24966 TIP3     5464     TIP3     OH2      OT      -0.834000       15.9994           0
     24967 TIP3     5464     TIP3     H1       HT       0.417000       1.00800           0
     24968 TIP3     5464     TIP3     H2       HT       0.417000       1.00800           0
     24969 TIP3     5465     TIP3     OH2      OT      -0.834000       15.9994           0
     24970 TIP3     5465     TIP3     H1       HT       0.417000       1.00800           0
     24971 TIP3     5465     TIP3     H2       HT       0.417000       1.00800           0
     24972 TIP3     5466     TIP3     OH2      OT      -0.834000       15.9994           0
     24973 TIP3     5466     TIP3     H1       HT       0.417000       1.00800           0
     24974 TIP3     5466     TIP3     H2       HT       0.417000       1.00800           0
     24975 TIP3     5467     TIP3     OH2      OT      -0.834000       15.9994           0
     24976 TIP3     5467     TIP3     H1       HT       0.417000       1.00800           0
     24977 TIP3     5467     TIP3     H2       HT       0.417000       1.00800           0
     24978 TIP3     5468     TIP3     OH2      OT      -0.834000       15.9994           0
     24979 TIP3     5468     TIP3     H1       HT       0.417000       1.00800           0
     24980 TIP3     5468     TIP3     H2       HT       0.417000       1.00800           0
     24981 TIP3     5469     TIP3     OH2      OT      -0.834000       15.9994           0
     24982 TIP3     5469     TIP3     H1       HT       0.417000       1.00800           0
     24983 TIP3     5469     TIP3     H2       HT       0.417000       1.00800           0
     24984 TIP3     5470     TIP3     OH2      OT      -0.834000       15.9994           0
     24985 TIP3     5470     TIP3     H1       HT       0.417000       1.00800           0
     24986 TIP3     5470     TIP3     H2       HT       0.417000       1.00800           0
     24987 TIP3     5471     TIP3     OH2      OT      -0.834000       15.9994           0
     24988 TIP3     5471     TIP3     H1       HT       0.417000       1.00800           0
     24989 TIP3     5471     TIP3     H2       HT       0.417000       1.00800           0
     24990 TIP3     5472     TIP3     OH2      OT      -0.834000       15.9994           0
     24991 TIP3     5472     TIP3     H1       HT       0.417000       1.00800           0
     24992 TIP3     5472     TIP3     H2       HT       0.417000       1.00800           0
     24993 TIP3     5473     TIP3     OH2      OT      -0.834000       15.9994           0
     24994 TIP3     5473     TIP3     H1       HT       0.417000       1.00800           0
     24995 TIP3     5473     TIP3     H2       HT       0.417000       1.00800           0
     24996 TIP3     5474     TIP3     OH2      OT      -0.834000       15.9994           0
     24997 TIP3     5474     TIP3     H1       HT       0.417000       1.00800           0
     24998 TIP3     5474     TIP3     H2       HT       0.417000       1.00800           0
     24999 TIP3     5475     TIP3     OH2      OT      -0.834000       15.9994           0
     25000 TIP3     5475     TIP3     H1       HT       0.417000       1.00800           0
     25001 TIP3     5475     TIP3     H2       HT       0.417000       1.00800           0
     25002 TIP3     5476     TIP3     OH2      OT      -0.834000       15.9994           0
     25003 TIP3     5476     TIP3     H1       HT       0.417000       1.00800           0
     25004 TIP3     5476     TIP3     H2       HT       0.417000       1.00800           0
     25005 TIP3     5477     TIP3     OH2      OT      -0.834000       15.9994           0
     25006 TIP3     5477     TIP3     H1       HT       0.417000       1.00800           0
     25007 TIP3     5477     TIP3     H2       HT       0.417000       1.00800           0
     25008 TIP3     5478     TIP3     OH2      OT      -0.834000       15.9994           0
     25009 TIP3     5478     TIP3     H1       HT       0.417000       1.00800           0
     25010 TIP3     5478     TIP3     H2       HT       0.417000       1.00800           0
     25011 TIP3     5479     TIP3     OH2      OT      -0.834000       15.9994           0
     25012 TIP3     5479     TIP3     H1       HT       0.417000       1.00800           0
     25013 TIP3     5479     TIP3     H2       HT       0.417000       1.00800           0
     25014 TIP3     5480     TIP3     OH2      OT      -0.834000       15.9994           0
     25015 TIP3     5480     TIP3     H1       HT       0.417000       1.00800           0
     25016 TIP3     5480     TIP3     H2       HT       0.417000       1.00800           0
     25017 TIP3     5481     TIP3     OH2      OT      -0.834000       15.9994           0
     25018 TIP3     5481     TIP3     H1       HT       0.417000       1.00800           0
     25019 TIP3     5481     TIP3     H2       HT       0.417000       1.00800           0
     25020 TIP3     5482     TIP3     OH2      OT      -0.834000       15.9994           0
     25021 TIP3     5482     TIP3     H1       HT       0.417000       1.00800           0
     25022 TIP3     5482     TIP3     H2       HT       0.417000       1.00800           0
     25023 TIP3     5483     TIP3     OH2      OT      -0.834000       15.9994           0
     25024 TIP3     5483     TIP3     H1       HT       0.417000       1.00800           0
     25025 TIP3     5483     TIP3     H2       HT       0.417000       1.00800           0
     25026 TIP3     5484     TIP3     OH2      OT      -0.834000       15.9994           0
     25027 TIP3     5484     TIP3     H1       HT       0.417000       1.00800           0
     25028 TIP3     5484     TIP3     H2       HT       0.417000       1.00800           0
     25029 TIP3     5485     TIP3     OH2      OT      -0.834000       15.9994           0
     25030 TIP3     5485     TIP3     H1       HT       0.417000       1.00800           0
     25031 TIP3     5485     TIP3     H2       HT       0.417000       1.00800           0
     25032 TIP3     5486     TIP3     OH2      OT      -0.834000       15.9994           0
     25033 TIP3     5486     TIP3     H1       HT       0.417000       1.00800           0
     25034 TIP3     5486     TIP3     H2       HT       0.417000       1.00800           0
     25035 TIP3     5487     TIP3     OH2      OT      -0.834000       15.9994           0
     25036 TIP3     5487     TIP3     H1       HT       0.417000       1.00800           0
     25037 TIP3     5487     TIP3     H2       HT       0.417000       1.00800           0
     25038 TIP3     5488     TIP3     OH2      OT      -0.834000       15.9994           0
     25039 TIP3     5488     TIP3     H1       HT       0.417000       1.00800           0
     25040 TIP3     5488     TIP3     H2       HT       0.417000       1.00800           0
     25041 TIP3     5489     TIP3     OH2      OT      -0.834000       15.9994           0
     25042 TIP3     5489     TIP3     H1       HT       0.417000       1.00800           0
     25043 TIP3     5489     TIP3     H2       HT       0.417000       1.00800           0
     25044 TIP3     5490     TIP3     OH2      OT      -0.834000       15.9994           0
     25045 TIP3     5490     TIP3     H1       HT       0.417000       1.00800           0
     25046 TIP3     5490     TIP3     H2       HT       0.417000       1.00800           0
     25047 TIP3     5491     TIP3     OH2      OT      -0.834000       15.9994           0
     25048 TIP3     5491     TIP3     H1       HT       0.417000       1.00800           0
     25049 TIP3     5491     TIP3     H2       HT       0.417000       1.00800           0
     25050 TIP3     5492     TIP3     OH2      OT      -0.834000       15.9994           0
     25051 TIP3     5492     TIP3     H1       HT       0.417000       1.00800           0
     25052 TIP3     5492     TIP3     H2       HT       0.417000       1.00800           0
     25053 TIP3     5493     TIP3     OH2      OT      -0.834000       15.9994           0
     25054 TIP3     5493     TIP3     H1       HT       0.417000       1.00800           0
     25055 TIP3     5493     TIP3     H2       HT       0.417000       1.00800           0
     25056 TIP3     5494     TIP3     OH2      OT      -0.834000       15.9994           0
     25057 TIP3     5494     TIP3     H1       HT       0.417000       1.00800           0
     25058 TIP3     5494     TIP3     H2       HT       0.417000       1.00800           0
     25059 TIP3     5495     TIP3     OH2      OT      -0.834000       15.9994           0
     25060 TIP3     5495     TIP3     H1       HT       0.417000       1.00800           0
     25061 TIP3     5495     TIP3     H2       HT       0.417000       1.00800           0
     25062 TIP3     5496     TIP3     OH2      OT      -0.834000       15.9994           0
     25063 TIP3     5496     TIP3     H1       HT       0.417000       1.00800           0
     25064 TIP3     5496     TIP3     H2       HT       0.417000       1.00800           0
     25065 TIP3     5497     TIP3     OH2      OT      -0.834000       15.9994           0
     25066 TIP3     5497     TIP3     H1       HT       0.417000       1.00800           0
     25067 TIP3     5497     TIP3     H2       HT       0.417000       1.00800           0
     25068 TIP3     5498     TIP3     OH2      OT      -0.834000       15.9994           0
     25069 TIP3     5498     TIP3     H1       HT       0.417000       1.00800           0
     25070 TIP3     5498     TIP3     H2       HT       0.417000       1.00800           0
     25071 TIP3     5499     TIP3     OH2      OT      -0.834000       15.9994           0
     25072 TIP3     5499     TIP3     H1       HT       0.417000       1.00800           0
     25073 TIP3     5499     TIP3     H2       HT       0.417000       1.00800           0
     25074 TIP3     5500     TIP3     OH2      OT      -0.834000       15.9994           0
     25075 TIP3     5500     TIP3     H1       HT       0.417000       1.00800           0
     25076 TIP3     5500     TIP3     H2       HT       0.417000       1.00800           0
     25077 TIP3     5501     TIP3     OH2      OT      -0.834000       15.9994           0
     25078 TIP3     5501     TIP3     H1       HT       0.417000       1.00800           0
     25079 TIP3     5501     TIP3     H2       HT       0.417000       1.00800           0
     25080 TIP3     5502     TIP3     OH2      OT      -0.834000       15.9994           0
     25081 TIP3     5502     TIP3     H1       HT       0.417000       1.00800           0
     25082 TIP3     5502     TIP3     H2       HT       0.417000       1.00800           0
     25083 TIP3     5503     TIP3     OH2      OT      -0.834000       15.9994           0
     25084 TIP3     5503     TIP3     H1       HT       0.417000       1.00800           0
     25085 TIP3     5503     TIP3     H2       HT       0.417000       1.00800           0
     25086 TIP3     5504     TIP3     OH2      OT      -0.834000       15.9994           0
     25087 TIP3     5504     TIP3     H1       HT       0.417000       1.00800           0
     25088 TIP3     5504     TIP3     H2       HT       0.417000       1.00800           0
     25089 TIP3     5505     TIP3     OH2      OT      -0.834000       15.9994           0
     25090 TIP3     5505     TIP3     H1       HT       0.417000       1.00800           0
     25091 TIP3     5505     TIP3     H2       HT       0.417000       1.00800           0
     25092 TIP3     5506     TIP3     OH2      OT      -0.834000       15.9994           0
     25093 TIP3     5506     TIP3     H1       HT       0.417000       1.00800           0
     25094 TIP3     5506     TIP3     H2       HT       0.417000       1.00800           0
     25095 TIP3     5507     TIP3     OH2      OT      -0.834000       15.9994           0
     25096 TIP3     5507     TIP3     H1       HT       0.417000       1.00800           0
     25097 TIP3     5507     TIP3     H2       HT       0.417000       1.00800           0
     25098 TIP3     5508     TIP3     OH2      OT      -0.834000       15.9994           0
     25099 TIP3     5508     TIP3     H1       HT       0.417000       1.00800           0
     25100 TIP3     5508     TIP3     H2       HT       0.417000       1.00800           0
     25101 TIP3     5509     TIP3     OH2      OT      -0.834000       15.9994           0
     25102 TIP3     5509     TIP3     H1       HT       0.417000       1.00800           0
     25103 TIP3     5509     TIP3     H2       HT       0.417000       1.00800           0
     25104 TIP3     5510     TIP3     OH2      OT      -0.834000       15.9994           0
     25105 TIP3     5510     TIP3     H1       HT       0.417000       1.00800           0
     25106 TIP3     5510     TIP3     H2       HT       0.417000       1.00800           0
     25107 TIP3     5511     TIP3     OH2      OT      -0.834000       15.9994           0
     25108 TIP3     5511     TIP3     H1       HT       0.417000       1.00800           0
     25109 TIP3     5511     TIP3     H2       HT       0.417000       1.00800           0
     25110 TIP3     5512     TIP3     OH2      OT      -0.834000       15.9994           0
     25111 TIP3     5512     TIP3     H1       HT       0.417000       1.00800           0
     25112 TIP3     5512     TIP3     H2       HT       0.417000       1.00800           0
     25113 TIP3     5513     TIP3     OH2      OT      -0.834000       15.9994           0
     25114 TIP3     5513     TIP3     H1       HT       0.417000       1.00800           0
     25115 TIP3     5513     TIP3     H2       HT       0.417000       1.00800           0
     25116 TIP3     5514     TIP3     OH2      OT      -0.834000       15.9994           0
     25117 TIP3     5514     TIP3     H1       HT       0.417000       1.00800           0
     25118 TIP3     5514     TIP3     H2       HT       0.417000       1.00800           0
     25119 TIP3     5515     TIP3     OH2      OT      -0.834000       15.9994           0
     25120 TIP3     5515     TIP3     H1       HT       0.417000       1.00800           0
     25121 TIP3     5515     TIP3     H2       HT       0.417000       1.00800           0
     25122 TIP3     5516     TIP3     OH2      OT      -0.834000       15.9994           0
     25123 TIP3     5516     TIP3     H1       HT       0.417000       1.00800           0
     25124 TIP3     5516     TIP3     H2       HT       0.417000       1.00800           0
     25125 TIP3     5517     TIP3     OH2      OT      -0.834000       15.9994           0
     25126 TIP3     5517     TIP3     H1       HT       0.417000       1.00800           0
     25127 TIP3     5517     TIP3     H2       HT       0.417000       1.00800           0
     25128 TIP3     5518     TIP3     OH2      OT      -0.834000       15.9994           0
     25129 TIP3     5518     TIP3     H1       HT       0.417000       1.00800           0
     25130 TIP3     5518     TIP3     H2       HT       0.417000       1.00800           0
     25131 TIP3     5519     TIP3     OH2      OT      -0.834000       15.9994           0
     25132 TIP3     5519     TIP3     H1       HT       0.417000       1.00800           0
     25133 TIP3     5519     TIP3     H2       HT       0.417000       1.00800           0
     25134 TIP3     5520     TIP3     OH2      OT      -0.834000       15.9994           0
     25135 TIP3     5520     TIP3     H1       HT       0.417000       1.00800           0
     25136 TIP3     5520     TIP3     H2       HT       0.417000       1.00800           0
     25137 TIP3     5521     TIP3     OH2      OT      -0.834000       15.9994           0
     25138 TIP3     5521     TIP3     H1       HT       0.417000       1.00800           0
     25139 TIP3     5521     TIP3     H2       HT       0.417000       1.00800           0
     25140 TIP3     5522     TIP3     OH2      OT      -0.834000       15.9994           0
     25141 TIP3     5522     TIP3     H1       HT       0.417000       1.00800           0
     25142 TIP3     5522     TIP3     H2       HT       0.417000       1.00800           0
     25143 TIP3     5523     TIP3     OH2      OT      -0.834000       15.9994           0
     25144 TIP3     5523     TIP3     H1       HT       0.417000       1.00800           0
     25145 TIP3     5523     TIP3     H2       HT       0.417000       1.00800           0
     25146 TIP3     5524     TIP3     OH2      OT      -0.834000       15.9994           0
     25147 TIP3     5524     TIP3     H1       HT       0.417000       1.00800           0
     25148 TIP3     5524     TIP3     H2       HT       0.417000       1.00800           0
     25149 TIP3     5525     TIP3     OH2      OT      -0.834000       15.9994           0
     25150 TIP3     5525     TIP3     H1       HT       0.417000       1.00800           0
     25151 TIP3     5525     TIP3     H2       HT       0.417000       1.00800           0
     25152 TIP3     5526     TIP3     OH2      OT      -0.834000       15.9994           0
     25153 TIP3     5526     TIP3     H1       HT       0.417000       1.00800           0
     25154 TIP3     5526     TIP3     H2       HT       0.417000       1.00800           0
     25155 TIP3     5527     TIP3     OH2      OT      -0.834000       15.9994           0
     25156 TIP3     5527     TIP3     H1       HT       0.417000       1.00800           0
     25157 TIP3     5527     TIP3     H2       HT       0.417000       1.00800           0
     25158 TIP3     5528     TIP3     OH2      OT      -0.834000       15.9994           0
     25159 TIP3     5528     TIP3     H1       HT       0.417000       1.00800           0
     25160 TIP3     5528     TIP3     H2       HT       0.417000       1.00800           0
     25161 TIP3     5529     TIP3     OH2      OT      -0.834000       15.9994           0
     25162 TIP3     5529     TIP3     H1       HT       0.417000       1.00800           0
     25163 TIP3     5529     TIP3     H2       HT       0.417000       1.00800           0
     25164 TIP3     5530     TIP3     OH2      OT      -0.834000       15.9994           0
     25165 TIP3     5530     TIP3     H1       HT       0.417000       1.00800           0
     25166 TIP3     5530     TIP3     H2       HT       0.417000       1.00800           0
     25167 TIP3     5531     TIP3     OH2      OT      -0.834000       15.9994           0
     25168 TIP3     5531     TIP3     H1       HT       0.417000       1.00800           0
     25169 TIP3     5531     TIP3     H2       HT       0.417000       1.00800           0
     25170 TIP3     5532     TIP3     OH2      OT      -0.834000       15.9994           0
     25171 TIP3     5532     TIP3     H1       HT       0.417000       1.00800           0
     25172 TIP3     5532     TIP3     H2       HT       0.417000       1.00800           0
     25173 TIP3     5533     TIP3     OH2      OT      -0.834000       15.9994           0
     25174 TIP3     5533     TIP3     H1       HT       0.417000       1.00800           0
     25175 TIP3     5533     TIP3     H2       HT       0.417000       1.00800           0
     25176 TIP3     5534     TIP3     OH2      OT      -0.834000       15.9994           0
     25177 TIP3     5534     TIP3     H1       HT       0.417000       1.00800           0
     25178 TIP3     5534     TIP3     H2       HT       0.417000       1.00800           0
     25179 TIP3     5535     TIP3     OH2      OT      -0.834000       15.9994           0
     25180 TIP3     5535     TIP3     H1       HT       0.417000       1.00800           0
     25181 TIP3     5535     TIP3     H2       HT       0.417000       1.00800           0
     25182 TIP3     5536     TIP3     OH2      OT      -0.834000       15.9994           0
     25183 TIP3     5536     TIP3     H1       HT       0.417000       1.00800           0
     25184 TIP3     5536     TIP3     H2       HT       0.417000       1.00800           0
     25185 TIP3     5537     TIP3     OH2      OT      -0.834000       15.9994           0
     25186 TIP3     5537     TIP3     H1       HT       0.417000       1.00800           0
     25187 TIP3     5537     TIP3     H2       HT       0.417000       1.00800           0
     25188 TIP3     5538     TIP3     OH2      OT      -0.834000       15.9994           0
     25189 TIP3     5538     TIP3     H1       HT       0.417000       1.00800           0
     25190 TIP3     5538     TIP3     H2       HT       0.417000       1.00800           0
     25191 TIP3     5539     TIP3     OH2      OT      -0.834000       15.9994           0
     25192 TIP3     5539     TIP3     H1       HT       0.417000       1.00800           0
     25193 TIP3     5539     TIP3     H2       HT       0.417000       1.00800           0
     25194 TIP3     5540     TIP3     OH2      OT      -0.834000       15.9994           0
     25195 TIP3     5540     TIP3     H1       HT       0.417000       1.00800           0
     25196 TIP3     5540     TIP3     H2       HT       0.417000       1.00800           0
     25197 TIP3     5541     TIP3     OH2      OT      -0.834000       15.9994           0
     25198 TIP3     5541     TIP3     H1       HT       0.417000       1.00800           0
     25199 TIP3     5541     TIP3     H2       HT       0.417000       1.00800           0
     25200 TIP3     5542     TIP3     OH2      OT      -0.834000       15.9994           0
     25201 TIP3     5542     TIP3     H1       HT       0.417000       1.00800           0
     25202 TIP3     5542     TIP3     H2       HT       0.417000       1.00800           0
     25203 TIP3     5543     TIP3     OH2      OT      -0.834000       15.9994           0
     25204 TIP3     5543     TIP3     H1       HT       0.417000       1.00800           0
     25205 TIP3     5543     TIP3     H2       HT       0.417000       1.00800           0
     25206 TIP3     5544     TIP3     OH2      OT      -0.834000       15.9994           0
     25207 TIP3     5544     TIP3     H1       HT       0.417000       1.00800           0
     25208 TIP3     5544     TIP3     H2       HT       0.417000       1.00800           0
     25209 TIP3     5545     TIP3     OH2      OT      -0.834000       15.9994           0
     25210 TIP3     5545     TIP3     H1       HT       0.417000       1.00800           0
     25211 TIP3     5545     TIP3     H2       HT       0.417000       1.00800           0
     25212 TIP3     5546     TIP3     OH2      OT      -0.834000       15.9994           0
     25213 TIP3     5546     TIP3     H1       HT       0.417000       1.00800           0
     25214 TIP3     5546     TIP3     H2       HT       0.417000       1.00800           0
     25215 TIP3     5547     TIP3     OH2      OT      -0.834000       15.9994           0
     25216 TIP3     5547     TIP3     H1       HT       0.417000       1.00800           0
     25217 TIP3     5547     TIP3     H2       HT       0.417000       1.00800           0
     25218 TIP3     5548     TIP3     OH2      OT      -0.834000       15.9994           0
     25219 TIP3     5548     TIP3     H1       HT       0.417000       1.00800           0
     25220 TIP3     5548     TIP3     H2       HT       0.417000       1.00800           0
     25221 TIP3     5549     TIP3     OH2      OT      -0.834000       15.9994           0
     25222 TIP3     5549     TIP3     H1       HT       0.417000       1.00800           0
     25223 TIP3     5549     TIP3     H2       HT       0.417000       1.00800           0
     25224 TIP3     5550     TIP3     OH2      OT      -0.834000       15.9994           0
     25225 TIP3     5550     TIP3     H1       HT       0.417000       1.00800           0
     25226 TIP3     5550     TIP3     H2       HT       0.417000       1.00800           0
     25227 TIP3     5551     TIP3     OH2      OT      -0.834000       15.9994           0
     25228 TIP3     5551     TIP3     H1       HT       0.417000       1.00800           0
     25229 TIP3     5551     TIP3     H2       HT       0.417000       1.00800           0
     25230 TIP3     5552     TIP3     OH2      OT      -0.834000       15.9994           0
     25231 TIP3     5552     TIP3     H1       HT       0.417000       1.00800           0
     25232 TIP3     5552     TIP3     H2       HT       0.417000       1.00800           0
     25233 TIP3     5553     TIP3     OH2      OT      -0.834000       15.9994           0
     25234 TIP3     5553     TIP3     H1       HT       0.417000       1.00800           0
     25235 TIP3     5553     TIP3     H2       HT       0.417000       1.00800           0
     25236 TIP3     5554     TIP3     OH2      OT      -0.834000       15.9994           0
     25237 TIP3     5554     TIP3     H1       HT       0.417000       1.00800           0
     25238 TIP3     5554     TIP3     H2       HT       0.417000       1.00800           0
     25239 TIP3     5555     TIP3     OH2      OT      -0.834000       15.9994           0
     25240 TIP3     5555     TIP3     H1       HT       0.417000       1.00800           0
     25241 TIP3     5555     TIP3     H2       HT       0.417000       1.00800           0
     25242 TIP3     5556     TIP3     OH2      OT      -0.834000       15.9994           0
     25243 TIP3     5556     TIP3     H1       HT       0.417000       1.00800           0
     25244 TIP3     5556     TIP3     H2       HT       0.417000       1.00800           0
     25245 TIP3     5557     TIP3     OH2      OT      -0.834000       15.9994           0
     25246 TIP3     5557     TIP3     H1       HT       0.417000       1.00800           0
     25247 TIP3     5557     TIP3     H2       HT       0.417000       1.00800           0
     25248 TIP3     5558     TIP3     OH2      OT      -0.834000       15.9994           0
     25249 TIP3     5558     TIP3     H1       HT       0.417000       1.00800           0
     25250 TIP3     5558     TIP3     H2       HT       0.417000       1.00800           0
     25251 TIP3     5559     TIP3     OH2      OT      -0.834000       15.9994           0
     25252 TIP3     5559     TIP3     H1       HT       0.417000       1.00800           0
     25253 TIP3     5559     TIP3     H2       HT       0.417000       1.00800           0
     25254 TIP3     5560     TIP3     OH2      OT      -0.834000       15.9994           0
     25255 TIP3     5560     TIP3     H1       HT       0.417000       1.00800           0
     25256 TIP3     5560     TIP3     H2       HT       0.417000       1.00800           0
     25257 TIP3     5561     TIP3     OH2      OT      -0.834000       15.9994           0
     25258 TIP3     5561     TIP3     H1       HT       0.417000       1.00800           0
     25259 TIP3     5561     TIP3     H2       HT       0.417000       1.00800           0
     25260 TIP3     5562     TIP3     OH2      OT      -0.834000       15.9994           0
     25261 TIP3     5562     TIP3     H1       HT       0.417000       1.00800           0
     25262 TIP3     5562     TIP3     H2       HT       0.417000       1.00800           0
     25263 TIP3     5563     TIP3     OH2      OT      -0.834000       15.9994           0
     25264 TIP3     5563     TIP3     H1       HT       0.417000       1.00800           0
     25265 TIP3     5563     TIP3     H2       HT       0.417000       1.00800           0
     25266 TIP3     5564     TIP3     OH2      OT      -0.834000       15.9994           0
     25267 TIP3     5564     TIP3     H1       HT       0.417000       1.00800           0
     25268 TIP3     5564     TIP3     H2       HT       0.417000       1.00800           0
     25269 TIP3     5565     TIP3     OH2      OT      -0.834000       15.9994           0
     25270 TIP3     5565     TIP3     H1       HT       0.417000       1.00800           0
     25271 TIP3     5565     TIP3     H2       HT       0.417000       1.00800           0
     25272 TIP3     5566     TIP3     OH2      OT      -0.834000       15.9994           0
     25273 TIP3     5566     TIP3     H1       HT       0.417000       1.00800           0
     25274 TIP3     5566     TIP3     H2       HT       0.417000       1.00800           0
     25275 TIP3     5567     TIP3     OH2      OT      -0.834000       15.9994           0
     25276 TIP3     5567     TIP3     H1       HT       0.417000       1.00800           0
     25277 TIP3     5567     TIP3     H2       HT       0.417000       1.00800           0
     25278 TIP3     5568     TIP3     OH2      OT      -0.834000       15.9994           0
     25279 TIP3     5568     TIP3     H1       HT       0.417000       1.00800           0
     25280 TIP3     5568     TIP3     H2       HT       0.417000       1.00800           0
     25281 TIP3     5569     TIP3     OH2      OT      -0.834000       15.9994           0
     25282 TIP3     5569     TIP3     H1       HT       0.417000       1.00800           0
     25283 TIP3     5569     TIP3     H2       HT       0.417000       1.00800           0
     25284 TIP3     5570     TIP3     OH2      OT      -0.834000       15.9994           0
     25285 TIP3     5570     TIP3     H1       HT       0.417000       1.00800           0
     25286 TIP3     5570     TIP3     H2       HT       0.417000       1.00800           0
     25287 TIP3     5571     TIP3     OH2      OT      -0.834000       15.9994           0
     25288 TIP3     5571     TIP3     H1       HT       0.417000       1.00800           0
     25289 TIP3     5571     TIP3     H2       HT       0.417000       1.00800           0
     25290 TIP3     5572     TIP3     OH2      OT      -0.834000       15.9994           0
     25291 TIP3     5572     TIP3     H1       HT       0.417000       1.00800           0
     25292 TIP3     5572     TIP3     H2       HT       0.417000       1.00800           0
     25293 TIP3     5573     TIP3     OH2      OT      -0.834000       15.9994           0
     25294 TIP3     5573     TIP3     H1       HT       0.417000       1.00800           0
     25295 TIP3     5573     TIP3     H2       HT       0.417000       1.00800           0
     25296 TIP3     5574     TIP3     OH2      OT      -0.834000       15.9994           0
     25297 TIP3     5574     TIP3     H1       HT       0.417000       1.00800           0
     25298 TIP3     5574     TIP3     H2       HT       0.417000       1.00800           0
     25299 TIP3     5575     TIP3     OH2      OT      -0.834000       15.9994           0
     25300 TIP3     5575     TIP3     H1       HT       0.417000       1.00800           0
     25301 TIP3     5575     TIP3     H2       HT       0.417000       1.00800           0
     25302 TIP3     5576     TIP3     OH2      OT      -0.834000       15.9994           0
     25303 TIP3     5576     TIP3     H1       HT       0.417000       1.00800           0
     25304 TIP3     5576     TIP3     H2       HT       0.417000       1.00800           0
     25305 TIP3     5577     TIP3     OH2      OT      -0.834000       15.9994           0
     25306 TIP3     5577     TIP3     H1       HT       0.417000       1.00800           0
     25307 TIP3     5577     TIP3     H2       HT       0.417000       1.00800           0
     25308 TIP3     5578     TIP3     OH2      OT      -0.834000       15.9994           0
     25309 TIP3     5578     TIP3     H1       HT       0.417000       1.00800           0
     25310 TIP3     5578     TIP3     H2       HT       0.417000       1.00800           0
     25311 TIP3     5579     TIP3     OH2      OT      -0.834000       15.9994           0
     25312 TIP3     5579     TIP3     H1       HT       0.417000       1.00800           0
     25313 TIP3     5579     TIP3     H2       HT       0.417000       1.00800           0
     25314 TIP3     5580     TIP3     OH2      OT      -0.834000       15.9994           0
     25315 TIP3     5580     TIP3     H1       HT       0.417000       1.00800           0
     25316 TIP3     5580     TIP3     H2       HT       0.417000       1.00800           0
     25317 TIP3     5581     TIP3     OH2      OT      -0.834000       15.9994           0
     25318 TIP3     5581     TIP3     H1       HT       0.417000       1.00800           0
     25319 TIP3     5581     TIP3     H2       HT       0.417000       1.00800           0
     25320 TIP3     5582     TIP3     OH2      OT      -0.834000       15.9994           0
     25321 TIP3     5582     TIP3     H1       HT       0.417000       1.00800           0
     25322 TIP3     5582     TIP3     H2       HT       0.417000       1.00800           0
     25323 TIP3     5583     TIP3     OH2      OT      -0.834000       15.9994           0
     25324 TIP3     5583     TIP3     H1       HT       0.417000       1.00800           0
     25325 TIP3     5583     TIP3     H2       HT       0.417000       1.00800           0
     25326 TIP3     5584     TIP3     OH2      OT      -0.834000       15.9994           0
     25327 TIP3     5584     TIP3     H1       HT       0.417000       1.00800           0
     25328 TIP3     5584     TIP3     H2       HT       0.417000       1.00800           0
     25329 TIP3     5585     TIP3     OH2      OT      -0.834000       15.9994           0
     25330 TIP3     5585     TIP3     H1       HT       0.417000       1.00800           0
     25331 TIP3     5585     TIP3     H2       HT       0.417000       1.00800           0
     25332 TIP3     5586     TIP3     OH2      OT      -0.834000       15.9994           0
     25333 TIP3     5586     TIP3     H1       HT       0.417000       1.00800           0
     25334 TIP3     5586     TIP3     H2       HT       0.417000       1.00800           0
     25335 TIP3     5587     TIP3     OH2      OT      -0.834000       15.9994           0
     25336 TIP3     5587     TIP3     H1       HT       0.417000       1.00800           0
     25337 TIP3     5587     TIP3     H2       HT       0.417000       1.00800           0
     25338 TIP3     5588     TIP3     OH2      OT      -0.834000       15.9994           0
     25339 TIP3     5588     TIP3     H1       HT       0.417000       1.00800           0
     25340 TIP3     5588     TIP3     H2       HT       0.417000       1.00800           0
     25341 TIP3     5589     TIP3     OH2      OT      -0.834000       15.9994           0
     25342 TIP3     5589     TIP3     H1       HT       0.417000       1.00800           0
     25343 TIP3     5589     TIP3     H2       HT       0.417000       1.00800           0
     25344 TIP3     5590     TIP3     OH2      OT      -0.834000       15.9994           0
     25345 TIP3     5590     TIP3     H1       HT       0.417000       1.00800           0
     25346 TIP3     5590     TIP3     H2       HT       0.417000       1.00800           0
     25347 TIP3     5591     TIP3     OH2      OT      -0.834000       15.9994           0
     25348 TIP3     5591     TIP3     H1       HT       0.417000       1.00800           0
     25349 TIP3     5591     TIP3     H2       HT       0.417000       1.00800           0
     25350 TIP3     5592     TIP3     OH2      OT      -0.834000       15.9994           0
     25351 TIP3     5592     TIP3     H1       HT       0.417000       1.00800           0
     25352 TIP3     5592     TIP3     H2       HT       0.417000       1.00800           0
     25353 TIP3     5593     TIP3     OH2      OT      -0.834000       15.9994           0
     25354 TIP3     5593     TIP3     H1       HT       0.417000       1.00800           0
     25355 TIP3     5593     TIP3     H2       HT       0.417000       1.00800           0
     25356 TIP3     5594     TIP3     OH2      OT      -0.834000       15.9994           0
     25357 TIP3     5594     TIP3     H1       HT       0.417000       1.00800           0
     25358 TIP3     5594     TIP3     H2       HT       0.417000       1.00800           0
     25359 TIP3     5595     TIP3     OH2      OT      -0.834000       15.9994           0
     25360 TIP3     5595     TIP3     H1       HT       0.417000       1.00800           0
     25361 TIP3     5595     TIP3     H2       HT       0.417000       1.00800           0
     25362 TIP3     5596     TIP3     OH2      OT      -0.834000       15.9994           0
     25363 TIP3     5596     TIP3     H1       HT       0.417000       1.00800           0
     25364 TIP3     5596     TIP3     H2       HT       0.417000       1.00800           0
     25365 TIP3     5597     TIP3     OH2      OT      -0.834000       15.9994           0
     25366 TIP3     5597     TIP3     H1       HT       0.417000       1.00800           0
     25367 TIP3     5597     TIP3     H2       HT       0.417000       1.00800           0
     25368 TIP3     5598     TIP3     OH2      OT      -0.834000       15.9994           0
     25369 TIP3     5598     TIP3     H1       HT       0.417000       1.00800           0
     25370 TIP3     5598     TIP3     H2       HT       0.417000       1.00800           0
     25371 TIP3     5599     TIP3     OH2      OT      -0.834000       15.9994           0
     25372 TIP3     5599     TIP3     H1       HT       0.417000       1.00800           0
     25373 TIP3     5599     TIP3     H2       HT       0.417000       1.00800           0
     25374 TIP3     5600     TIP3     OH2      OT      -0.834000       15.9994           0
     25375 TIP3     5600     TIP3     H1       HT       0.417000       1.00800           0
     25376 TIP3     5600     TIP3     H2       HT       0.417000       1.00800           0
     25377 TIP3     5601     TIP3     OH2      OT      -0.834000       15.9994           0
     25378 TIP3     5601     TIP3     H1       HT       0.417000       1.00800           0
     25379 TIP3     5601     TIP3     H2       HT       0.417000       1.00800           0
     25380 TIP3     5602     TIP3     OH2      OT      -0.834000       15.9994           0
     25381 TIP3     5602     TIP3     H1       HT       0.417000       1.00800           0
     25382 TIP3     5602     TIP3     H2       HT       0.417000       1.00800           0
     25383 TIP3     5603     TIP3     OH2      OT      -0.834000       15.9994           0
     25384 TIP3     5603     TIP3     H1       HT       0.417000       1.00800           0
     25385 TIP3     5603     TIP3     H2       HT       0.417000       1.00800           0
     25386 TIP3     5604     TIP3     OH2      OT      -0.834000       15.9994           0
     25387 TIP3     5604     TIP3     H1       HT       0.417000       1.00800           0
     25388 TIP3     5604     TIP3     H2       HT       0.417000       1.00800           0
     25389 TIP3     5605     TIP3     OH2      OT      -0.834000       15.9994           0
     25390 TIP3     5605     TIP3     H1       HT       0.417000       1.00800           0
     25391 TIP3     5605     TIP3     H2       HT       0.417000       1.00800           0
     25392 TIP3     5606     TIP3     OH2      OT      -0.834000       15.9994           0
     25393 TIP3     5606     TIP3     H1       HT       0.417000       1.00800           0
     25394 TIP3     5606     TIP3     H2       HT       0.417000       1.00800           0
     25395 TIP3     5607     TIP3     OH2      OT      -0.834000       15.9994           0
     25396 TIP3     5607     TIP3     H1       HT       0.417000       1.00800           0
     25397 TIP3     5607     TIP3     H2       HT       0.417000       1.00800           0
     25398 TIP3     5608     TIP3     OH2      OT      -0.834000       15.9994           0
     25399 TIP3     5608     TIP3     H1       HT       0.417000       1.00800           0
     25400 TIP3     5608     TIP3     H2       HT       0.417000       1.00800           0
     25401 TIP3     5609     TIP3     OH2      OT      -0.834000       15.9994           0
     25402 TIP3     5609     TIP3     H1       HT       0.417000       1.00800           0
     25403 TIP3     5609     TIP3     H2       HT       0.417000       1.00800           0
     25404 TIP3     5610     TIP3     OH2      OT      -0.834000       15.9994           0
     25405 TIP3     5610     TIP3     H1       HT       0.417000       1.00800           0
     25406 TIP3     5610     TIP3     H2       HT       0.417000       1.00800           0
     25407 TIP3     5611     TIP3     OH2      OT      -0.834000       15.9994           0
     25408 TIP3     5611     TIP3     H1       HT       0.417000       1.00800           0
     25409 TIP3     5611     TIP3     H2       HT       0.417000       1.00800           0
     25410 TIP3     5612     TIP3     OH2      OT      -0.834000       15.9994           0
     25411 TIP3     5612     TIP3     H1       HT       0.417000       1.00800           0
     25412 TIP3     5612     TIP3     H2       HT       0.417000       1.00800           0
     25413 TIP3     5613     TIP3     OH2      OT      -0.834000       15.9994           0
     25414 TIP3     5613     TIP3     H1       HT       0.417000       1.00800           0
     25415 TIP3     5613     TIP3     H2       HT       0.417000       1.00800           0
     25416 TIP3     5614     TIP3     OH2      OT      -0.834000       15.9994           0
     25417 TIP3     5614     TIP3     H1       HT       0.417000       1.00800           0
     25418 TIP3     5614     TIP3     H2       HT       0.417000       1.00800           0
     25419 TIP3     5615     TIP3     OH2      OT      -0.834000       15.9994           0
     25420 TIP3     5615     TIP3     H1       HT       0.417000       1.00800           0
     25421 TIP3     5615     TIP3     H2       HT       0.417000       1.00800           0
     25422 TIP3     5616     TIP3     OH2      OT      -0.834000       15.9994           0
     25423 TIP3     5616     TIP3     H1       HT       0.417000       1.00800           0
     25424 TIP3     5616     TIP3     H2       HT       0.417000       1.00800           0
     25425 TIP3     5617     TIP3     OH2      OT      -0.834000       15.9994           0
     25426 TIP3     5617     TIP3     H1       HT       0.417000       1.00800           0
     25427 TIP3     5617     TIP3     H2       HT       0.417000       1.00800           0
     25428 TIP3     5618     TIP3     OH2      OT      -0.834000       15.9994           0
     25429 TIP3     5618     TIP3     H1       HT       0.417000       1.00800           0
     25430 TIP3     5618     TIP3     H2       HT       0.417000       1.00800           0
     25431 TIP3     5619     TIP3     OH2      OT      -0.834000       15.9994           0
     25432 TIP3     5619     TIP3     H1       HT       0.417000       1.00800           0
     25433 TIP3     5619     TIP3     H2       HT       0.417000       1.00800           0
     25434 TIP3     5620     TIP3     OH2      OT      -0.834000       15.9994           0
     25435 TIP3     5620     TIP3     H1       HT       0.417000       1.00800           0
     25436 TIP3     5620     TIP3     H2       HT       0.417000       1.00800           0
     25437 TIP3     5621     TIP3     OH2      OT      -0.834000       15.9994           0
     25438 TIP3     5621     TIP3     H1       HT       0.417000       1.00800           0
     25439 TIP3     5621     TIP3     H2       HT       0.417000       1.00800           0
     25440 TIP3     5622     TIP3     OH2      OT      -0.834000       15.9994           0
     25441 TIP3     5622     TIP3     H1       HT       0.417000       1.00800           0
     25442 TIP3     5622     TIP3     H2       HT       0.417000       1.00800           0
     25443 TIP3     5623     TIP3     OH2      OT      -0.834000       15.9994           0
     25444 TIP3     5623     TIP3     H1       HT       0.417000       1.00800           0
     25445 TIP3     5623     TIP3     H2       HT       0.417000       1.00800           0
     25446 TIP3     5624     TIP3     OH2      OT      -0.834000       15.9994           0
     25447 TIP3     5624     TIP3     H1       HT       0.417000       1.00800           0
     25448 TIP3     5624     TIP3     H2       HT       0.417000       1.00800           0
     25449 TIP3     5625     TIP3     OH2      OT      -0.834000       15.9994           0
     25450 TIP3     5625     TIP3     H1       HT       0.417000       1.00800           0
     25451 TIP3     5625     TIP3     H2       HT       0.417000       1.00800           0
     25452 TIP3     5626     TIP3     OH2      OT      -0.834000       15.9994           0
     25453 TIP3     5626     TIP3     H1       HT       0.417000       1.00800           0
     25454 TIP3     5626     TIP3     H2       HT       0.417000       1.00800           0
     25455 TIP3     5627     TIP3     OH2      OT      -0.834000       15.9994           0
     25456 TIP3     5627     TIP3     H1       HT       0.417000       1.00800           0
     25457 TIP3     5627     TIP3     H2       HT       0.417000       1.00800           0
     25458 TIP3     5628     TIP3     OH2      OT      -0.834000       15.9994           0
     25459 TIP3     5628     TIP3     H1       HT       0.417000       1.00800           0
     25460 TIP3     5628     TIP3     H2       HT       0.417000       1.00800           0
     25461 TIP3     5629     TIP3     OH2      OT      -0.834000       15.9994           0
     25462 TIP3     5629     TIP3     H1       HT       0.417000       1.00800           0
     25463 TIP3     5629     TIP3     H2       HT       0.417000       1.00800           0
     25464 TIP3     5630     TIP3     OH2      OT      -0.834000       15.9994           0
     25465 TIP3     5630     TIP3     H1       HT       0.417000       1.00800           0
     25466 TIP3     5630     TIP3     H2       HT       0.417000       1.00800           0
     25467 TIP3     5631     TIP3     OH2      OT      -0.834000       15.9994           0
     25468 TIP3     5631     TIP3     H1       HT       0.417000       1.00800           0
     25469 TIP3     5631     TIP3     H2       HT       0.417000       1.00800           0
     25470 TIP3     5632     TIP3     OH2      OT      -0.834000       15.9994           0
     25471 TIP3     5632     TIP3     H1       HT       0.417000       1.00800           0
     25472 TIP3     5632     TIP3     H2       HT       0.417000       1.00800           0
     25473 TIP3     5633     TIP3     OH2      OT      -0.834000       15.9994           0
     25474 TIP3     5633     TIP3     H1       HT       0.417000       1.00800           0
     25475 TIP3     5633     TIP3     H2       HT       0.417000       1.00800           0
     25476 TIP3     5634     TIP3     OH2      OT      -0.834000       15.9994           0
     25477 TIP3     5634     TIP3     H1       HT       0.417000       1.00800           0
     25478 TIP3     5634     TIP3     H2       HT       0.417000       1.00800           0
     25479 TIP3     5635     TIP3     OH2      OT      -0.834000       15.9994           0
     25480 TIP3     5635     TIP3     H1       HT       0.417000       1.00800           0
     25481 TIP3     5635     TIP3     H2       HT       0.417000       1.00800           0
     25482 TIP3     5636     TIP3     OH2      OT      -0.834000       15.9994           0
     25483 TIP3     5636     TIP3     H1       HT       0.417000       1.00800           0
     25484 TIP3     5636     TIP3     H2       HT       0.417000       1.00800           0
     25485 TIP3     5637     TIP3     OH2      OT      -0.834000       15.9994           0
     25486 TIP3     5637     TIP3     H1       HT       0.417000       1.00800           0
     25487 TIP3     5637     TIP3     H2       HT       0.417000       1.00800           0
     25488 TIP3     5638     TIP3     OH2      OT      -0.834000       15.9994           0
     25489 TIP3     5638     TIP3     H1       HT       0.417000       1.00800           0
     25490 TIP3     5638     TIP3     H2       HT       0.417000       1.00800           0
     25491 TIP3     5639     TIP3     OH2      OT      -0.834000       15.9994           0
     25492 TIP3     5639     TIP3     H1       HT       0.417000       1.00800           0
     25493 TIP3     5639     TIP3     H2       HT       0.417000       1.00800           0
     25494 TIP3     5640     TIP3     OH2      OT      -0.834000       15.9994           0
     25495 TIP3     5640     TIP3     H1       HT       0.417000       1.00800           0
     25496 TIP3     5640     TIP3     H2       HT       0.417000       1.00800           0
     25497 TIP3     5641     TIP3     OH2      OT      -0.834000       15.9994           0
     25498 TIP3     5641     TIP3     H1       HT       0.417000       1.00800           0
     25499 TIP3     5641     TIP3     H2       HT       0.417000       1.00800           0
     25500 TIP3     5642     TIP3     OH2      OT      -0.834000       15.9994           0
     25501 TIP3     5642     TIP3     H1       HT       0.417000       1.00800           0
     25502 TIP3     5642     TIP3     H2       HT       0.417000       1.00800           0
     25503 TIP3     5643     TIP3     OH2      OT      -0.834000       15.9994           0
     25504 TIP3     5643     TIP3     H1       HT       0.417000       1.00800           0
     25505 TIP3     5643     TIP3     H2       HT       0.417000       1.00800           0
     25506 TIP3     5644     TIP3     OH2      OT      -0.834000       15.9994           0
     25507 TIP3     5644     TIP3     H1       HT       0.417000       1.00800           0
     25508 TIP3     5644     TIP3     H2       HT       0.417000       1.00800           0
     25509 TIP3     5645     TIP3     OH2      OT      -0.834000       15.9994           0
     25510 TIP3     5645     TIP3     H1       HT       0.417000       1.00800           0
     25511 TIP3     5645     TIP3     H2       HT       0.417000       1.00800           0
     25512 TIP3     5646     TIP3     OH2      OT      -0.834000       15.9994           0
     25513 TIP3     5646     TIP3     H1       HT       0.417000       1.00800           0
     25514 TIP3     5646     TIP3     H2       HT       0.417000       1.00800           0
     25515 TIP3     5647     TIP3     OH2      OT      -0.834000       15.9994           0
     25516 TIP3     5647     TIP3     H1       HT       0.417000       1.00800           0
     25517 TIP3     5647     TIP3     H2       HT       0.417000       1.00800           0
     25518 TIP3     5648     TIP3     OH2      OT      -0.834000       15.9994           0
     25519 TIP3     5648     TIP3     H1       HT       0.417000       1.00800           0
     25520 TIP3     5648     TIP3     H2       HT       0.417000       1.00800           0
     25521 TIP3     5649     TIP3     OH2      OT      -0.834000       15.9994           0
     25522 TIP3     5649     TIP3     H1       HT       0.417000       1.00800           0
     25523 TIP3     5649     TIP3     H2       HT       0.417000       1.00800           0
     25524 TIP3     5650     TIP3     OH2      OT      -0.834000       15.9994           0
     25525 TIP3     5650     TIP3     H1       HT       0.417000       1.00800           0
     25526 TIP3     5650     TIP3     H2       HT       0.417000       1.00800           0
     25527 TIP3     5651     TIP3     OH2      OT      -0.834000       15.9994           0
     25528 TIP3     5651     TIP3     H1       HT       0.417000       1.00800           0
     25529 TIP3     5651     TIP3     H2       HT       0.417000       1.00800           0
     25530 TIP3     5652     TIP3     OH2      OT      -0.834000       15.9994           0
     25531 TIP3     5652     TIP3     H1       HT       0.417000       1.00800           0
     25532 TIP3     5652     TIP3     H2       HT       0.417000       1.00800           0
     25533 TIP3     5653     TIP3     OH2      OT      -0.834000       15.9994           0
     25534 TIP3     5653     TIP3     H1       HT       0.417000       1.00800           0
     25535 TIP3     5653     TIP3     H2       HT       0.417000       1.00800           0
     25536 TIP3     5654     TIP3     OH2      OT      -0.834000       15.9994           0
     25537 TIP3     5654     TIP3     H1       HT       0.417000       1.00800           0
     25538 TIP3     5654     TIP3     H2       HT       0.417000       1.00800           0
     25539 TIP3     5655     TIP3     OH2      OT      -0.834000       15.9994           0
     25540 TIP3     5655     TIP3     H1       HT       0.417000       1.00800           0
     25541 TIP3     5655     TIP3     H2       HT       0.417000       1.00800           0
     25542 TIP3     5656     TIP3     OH2      OT      -0.834000       15.9994           0
     25543 TIP3     5656     TIP3     H1       HT       0.417000       1.00800           0
     25544 TIP3     5656     TIP3     H2       HT       0.417000       1.00800           0
     25545 TIP3     5657     TIP3     OH2      OT      -0.834000       15.9994           0
     25546 TIP3     5657     TIP3     H1       HT       0.417000       1.00800           0
     25547 TIP3     5657     TIP3     H2       HT       0.417000       1.00800           0
     25548 TIP3     5658     TIP3     OH2      OT      -0.834000       15.9994           0
     25549 TIP3     5658     TIP3     H1       HT       0.417000       1.00800           0
     25550 TIP3     5658     TIP3     H2       HT       0.417000       1.00800           0
     25551 TIP3     5659     TIP3     OH2      OT      -0.834000       15.9994           0
     25552 TIP3     5659     TIP3     H1       HT       0.417000       1.00800           0
     25553 TIP3     5659     TIP3     H2       HT       0.417000       1.00800           0
     25554 TIP3     5660     TIP3     OH2      OT      -0.834000       15.9994           0
     25555 TIP3     5660     TIP3     H1       HT       0.417000       1.00800           0
     25556 TIP3     5660     TIP3     H2       HT       0.417000       1.00800           0
     25557 TIP3     5661     TIP3     OH2      OT      -0.834000       15.9994           0
     25558 TIP3     5661     TIP3     H1       HT       0.417000       1.00800           0
     25559 TIP3     5661     TIP3     H2       HT       0.417000       1.00800           0
     25560 TIP3     5662     TIP3     OH2      OT      -0.834000       15.9994           0
     25561 TIP3     5662     TIP3     H1       HT       0.417000       1.00800           0
     25562 TIP3     5662     TIP3     H2       HT       0.417000       1.00800           0
     25563 TIP3     5663     TIP3     OH2      OT      -0.834000       15.9994           0
     25564 TIP3     5663     TIP3     H1       HT       0.417000       1.00800           0
     25565 TIP3     5663     TIP3     H2       HT       0.417000       1.00800           0
     25566 TIP3     5664     TIP3     OH2      OT      -0.834000       15.9994           0
     25567 TIP3     5664     TIP3     H1       HT       0.417000       1.00800           0
     25568 TIP3     5664     TIP3     H2       HT       0.417000       1.00800           0
     25569 TIP3     5665     TIP3     OH2      OT      -0.834000       15.9994           0
     25570 TIP3     5665     TIP3     H1       HT       0.417000       1.00800           0
     25571 TIP3     5665     TIP3     H2       HT       0.417000       1.00800           0
     25572 TIP3     5666     TIP3     OH2      OT      -0.834000       15.9994           0
     25573 TIP3     5666     TIP3     H1       HT       0.417000       1.00800           0
     25574 TIP3     5666     TIP3     H2       HT       0.417000       1.00800           0
     25575 TIP3     5667     TIP3     OH2      OT      -0.834000       15.9994           0
     25576 TIP3     5667     TIP3     H1       HT       0.417000       1.00800           0
     25577 TIP3     5667     TIP3     H2       HT       0.417000       1.00800           0
     25578 TIP3     5668     TIP3     OH2      OT      -0.834000       15.9994           0
     25579 TIP3     5668     TIP3     H1       HT       0.417000       1.00800           0
     25580 TIP3     5668     TIP3     H2       HT       0.417000       1.00800           0
     25581 TIP3     5669     TIP3     OH2      OT      -0.834000       15.9994           0
     25582 TIP3     5669     TIP3     H1       HT       0.417000       1.00800           0
     25583 TIP3     5669     TIP3     H2       HT       0.417000       1.00800           0
     25584 TIP3     5670     TIP3     OH2      OT      -0.834000       15.9994           0
     25585 TIP3     5670     TIP3     H1       HT       0.417000       1.00800           0
     25586 TIP3     5670     TIP3     H2       HT       0.417000       1.00800           0
     25587 TIP3     5671     TIP3     OH2      OT      -0.834000       15.9994           0
     25588 TIP3     5671     TIP3     H1       HT       0.417000       1.00800           0
     25589 TIP3     5671     TIP3     H2       HT       0.417000       1.00800           0
     25590 TIP3     5672     TIP3     OH2      OT      -0.834000       15.9994           0
     25591 TIP3     5672     TIP3     H1       HT       0.417000       1.00800           0
     25592 TIP3     5672     TIP3     H2       HT       0.417000       1.00800           0
     25593 TIP3     5673     TIP3     OH2      OT      -0.834000       15.9994           0
     25594 TIP3     5673     TIP3     H1       HT       0.417000       1.00800           0
     25595 TIP3     5673     TIP3     H2       HT       0.417000       1.00800           0
     25596 TIP3     5674     TIP3     OH2      OT      -0.834000       15.9994           0
     25597 TIP3     5674     TIP3     H1       HT       0.417000       1.00800           0
     25598 TIP3     5674     TIP3     H2       HT       0.417000       1.00800           0
     25599 TIP3     5675     TIP3     OH2      OT      -0.834000       15.9994           0
     25600 TIP3     5675     TIP3     H1       HT       0.417000       1.00800           0
     25601 TIP3     5675     TIP3     H2       HT       0.417000       1.00800           0
     25602 TIP3     5676     TIP3     OH2      OT      -0.834000       15.9994           0
     25603 TIP3     5676     TIP3     H1       HT       0.417000       1.00800           0
     25604 TIP3     5676     TIP3     H2       HT       0.417000       1.00800           0
     25605 TIP3     5677     TIP3     OH2      OT      -0.834000       15.9994           0
     25606 TIP3     5677     TIP3     H1       HT       0.417000       1.00800           0
     25607 TIP3     5677     TIP3     H2       HT       0.417000       1.00800           0
     25608 TIP3     5678     TIP3     OH2      OT      -0.834000       15.9994           0
     25609 TIP3     5678     TIP3     H1       HT       0.417000       1.00800           0
     25610 TIP3     5678     TIP3     H2       HT       0.417000       1.00800           0
     25611 TIP3     5679     TIP3     OH2      OT      -0.834000       15.9994           0
     25612 TIP3     5679     TIP3     H1       HT       0.417000       1.00800           0
     25613 TIP3     5679     TIP3     H2       HT       0.417000       1.00800           0
     25614 TIP3     5680     TIP3     OH2      OT      -0.834000       15.9994           0
     25615 TIP3     5680     TIP3     H1       HT       0.417000       1.00800           0
     25616 TIP3     5680     TIP3     H2       HT       0.417000       1.00800           0
     25617 TIP3     5681     TIP3     OH2      OT      -0.834000       15.9994           0
     25618 TIP3     5681     TIP3     H1       HT       0.417000       1.00800           0
     25619 TIP3     5681     TIP3     H2       HT       0.417000       1.00800           0
     25620 TIP3     5682     TIP3     OH2      OT      -0.834000       15.9994           0
     25621 TIP3     5682     TIP3     H1       HT       0.417000       1.00800           0
     25622 TIP3     5682     TIP3     H2       HT       0.417000       1.00800           0
     25623 TIP3     5683     TIP3     OH2      OT      -0.834000       15.9994           0
     25624 TIP3     5683     TIP3     H1       HT       0.417000       1.00800           0
     25625 TIP3     5683     TIP3     H2       HT       0.417000       1.00800           0
     25626 TIP3     5684     TIP3     OH2      OT      -0.834000       15.9994           0
     25627 TIP3     5684     TIP3     H1       HT       0.417000       1.00800           0
     25628 TIP3     5684     TIP3     H2       HT       0.417000       1.00800           0
     25629 TIP3     5685     TIP3     OH2      OT      -0.834000       15.9994           0
     25630 TIP3     5685     TIP3     H1       HT       0.417000       1.00800           0
     25631 TIP3     5685     TIP3     H2       HT       0.417000       1.00800           0
     25632 TIP3     5686     TIP3     OH2      OT      -0.834000       15.9994           0
     25633 TIP3     5686     TIP3     H1       HT       0.417000       1.00800           0
     25634 TIP3     5686     TIP3     H2       HT       0.417000       1.00800           0
     25635 TIP3     5687     TIP3     OH2      OT      -0.834000       15.9994           0
     25636 TIP3     5687     TIP3     H1       HT       0.417000       1.00800           0
     25637 TIP3     5687     TIP3     H2       HT       0.417000       1.00800           0
     25638 TIP3     5688     TIP3     OH2      OT      -0.834000       15.9994           0
     25639 TIP3     5688     TIP3     H1       HT       0.417000       1.00800           0
     25640 TIP3     5688     TIP3     H2       HT       0.417000       1.00800           0
     25641 TIP3     5689     TIP3     OH2      OT      -0.834000       15.9994           0
     25642 TIP3     5689     TIP3     H1       HT       0.417000       1.00800           0
     25643 TIP3     5689     TIP3     H2       HT       0.417000       1.00800           0
     25644 TIP3     5690     TIP3     OH2      OT      -0.834000       15.9994           0
     25645 TIP3     5690     TIP3     H1       HT       0.417000       1.00800           0
     25646 TIP3     5690     TIP3     H2       HT       0.417000       1.00800           0
     25647 TIP3     5691     TIP3     OH2      OT      -0.834000       15.9994           0
     25648 TIP3     5691     TIP3     H1       HT       0.417000       1.00800           0
     25649 TIP3     5691     TIP3     H2       HT       0.417000       1.00800           0
     25650 TIP3     5692     TIP3     OH2      OT      -0.834000       15.9994           0
     25651 TIP3     5692     TIP3     H1       HT       0.417000       1.00800           0
     25652 TIP3     5692     TIP3     H2       HT       0.417000       1.00800           0
     25653 TIP3     5693     TIP3     OH2      OT      -0.834000       15.9994           0
     25654 TIP3     5693     TIP3     H1       HT       0.417000       1.00800           0
     25655 TIP3     5693     TIP3     H2       HT       0.417000       1.00800           0
     25656 TIP3     5694     TIP3     OH2      OT      -0.834000       15.9994           0
     25657 TIP3     5694     TIP3     H1       HT       0.417000       1.00800           0
     25658 TIP3     5694     TIP3     H2       HT       0.417000       1.00800           0
     25659 TIP3     5695     TIP3     OH2      OT      -0.834000       15.9994           0
     25660 TIP3     5695     TIP3     H1       HT       0.417000       1.00800           0
     25661 TIP3     5695     TIP3     H2       HT       0.417000       1.00800           0
     25662 TIP3     5696     TIP3     OH2      OT      -0.834000       15.9994           0
     25663 TIP3     5696     TIP3     H1       HT       0.417000       1.00800           0
     25664 TIP3     5696     TIP3     H2       HT       0.417000       1.00800           0
     25665 TIP3     5697     TIP3     OH2      OT      -0.834000       15.9994           0
     25666 TIP3     5697     TIP3     H1       HT       0.417000       1.00800           0
     25667 TIP3     5697     TIP3     H2       HT       0.417000       1.00800           0
     25668 TIP3     5698     TIP3     OH2      OT      -0.834000       15.9994           0
     25669 TIP3     5698     TIP3     H1       HT       0.417000       1.00800           0
     25670 TIP3     5698     TIP3     H2       HT       0.417000       1.00800           0
     25671 TIP3     5699     TIP3     OH2      OT      -0.834000       15.9994           0
     25672 TIP3     5699     TIP3     H1       HT       0.417000       1.00800           0
     25673 TIP3     5699     TIP3     H2       HT       0.417000       1.00800           0
     25674 TIP3     5700     TIP3     OH2      OT      -0.834000       15.9994           0
     25675 TIP3     5700     TIP3     H1       HT       0.417000       1.00800           0
     25676 TIP3     5700     TIP3     H2       HT       0.417000       1.00800           0
     25677 TIP3     5701     TIP3     OH2      OT      -0.834000       15.9994           0
     25678 TIP3     5701     TIP3     H1       HT       0.417000       1.00800           0
     25679 TIP3     5701     TIP3     H2       HT       0.417000       1.00800           0
     25680 TIP3     5702     TIP3     OH2      OT      -0.834000       15.9994           0
     25681 TIP3     5702     TIP3     H1       HT       0.417000       1.00800           0
     25682 TIP3     5702     TIP3     H2       HT       0.417000       1.00800           0
     25683 TIP3     5703     TIP3     OH2      OT      -0.834000       15.9994           0
     25684 TIP3     5703     TIP3     H1       HT       0.417000       1.00800           0
     25685 TIP3     5703     TIP3     H2       HT       0.417000       1.00800           0
     25686 TIP3     5704     TIP3     OH2      OT      -0.834000       15.9994           0
     25687 TIP3     5704     TIP3     H1       HT       0.417000       1.00800           0
     25688 TIP3     5704     TIP3     H2       HT       0.417000       1.00800           0
     25689 TIP3     5705     TIP3     OH2      OT      -0.834000       15.9994           0
     25690 TIP3     5705     TIP3     H1       HT       0.417000       1.00800           0
     25691 TIP3     5705     TIP3     H2       HT       0.417000       1.00800           0
     25692 TIP3     5706     TIP3     OH2      OT      -0.834000       15.9994           0
     25693 TIP3     5706     TIP3     H1       HT       0.417000       1.00800           0
     25694 TIP3     5706     TIP3     H2       HT       0.417000       1.00800           0
     25695 TIP3     5707     TIP3     OH2      OT      -0.834000       15.9994           0
     25696 TIP3     5707     TIP3     H1       HT       0.417000       1.00800           0
     25697 TIP3     5707     TIP3     H2       HT       0.417000       1.00800           0
     25698 TIP3     5708     TIP3     OH2      OT      -0.834000       15.9994           0
     25699 TIP3     5708     TIP3     H1       HT       0.417000       1.00800           0
     25700 TIP3     5708     TIP3     H2       HT       0.417000       1.00800           0
     25701 TIP3     5709     TIP3     OH2      OT      -0.834000       15.9994           0
     25702 TIP3     5709     TIP3     H1       HT       0.417000       1.00800           0
     25703 TIP3     5709     TIP3     H2       HT       0.417000       1.00800           0
     25704 TIP3     5710     TIP3     OH2      OT      -0.834000       15.9994           0
     25705 TIP3     5710     TIP3     H1       HT       0.417000       1.00800           0
     25706 TIP3     5710     TIP3     H2       HT       0.417000       1.00800           0
     25707 TIP3     5711     TIP3     OH2      OT      -0.834000       15.9994           0
     25708 TIP3     5711     TIP3     H1       HT       0.417000       1.00800           0
     25709 TIP3     5711     TIP3     H2       HT       0.417000       1.00800           0
     25710 TIP3     5712     TIP3     OH2      OT      -0.834000       15.9994           0
     25711 TIP3     5712     TIP3     H1       HT       0.417000       1.00800           0
     25712 TIP3     5712     TIP3     H2       HT       0.417000       1.00800           0
     25713 TIP3     5713     TIP3     OH2      OT      -0.834000       15.9994           0
     25714 TIP3     5713     TIP3     H1       HT       0.417000       1.00800           0
     25715 TIP3     5713     TIP3     H2       HT       0.417000       1.00800           0
     25716 TIP3     5714     TIP3     OH2      OT      -0.834000       15.9994           0
     25717 TIP3     5714     TIP3     H1       HT       0.417000       1.00800           0
     25718 TIP3     5714     TIP3     H2       HT       0.417000       1.00800           0
     25719 TIP3     5715     TIP3     OH2      OT      -0.834000       15.9994           0
     25720 TIP3     5715     TIP3     H1       HT       0.417000       1.00800           0
     25721 TIP3     5715     TIP3     H2       HT       0.417000       1.00800           0
     25722 TIP3     5716     TIP3     OH2      OT      -0.834000       15.9994           0
     25723 TIP3     5716     TIP3     H1       HT       0.417000       1.00800           0
     25724 TIP3     5716     TIP3     H2       HT       0.417000       1.00800           0
     25725 TIP3     5717     TIP3     OH2      OT      -0.834000       15.9994           0
     25726 TIP3     5717     TIP3     H1       HT       0.417000       1.00800           0
     25727 TIP3     5717     TIP3     H2       HT       0.417000       1.00800           0
     25728 TIP3     5718     TIP3     OH2      OT      -0.834000       15.9994           0
     25729 TIP3     5718     TIP3     H1       HT       0.417000       1.00800           0
     25730 TIP3     5718     TIP3     H2       HT       0.417000       1.00800           0
     25731 TIP3     5719     TIP3     OH2      OT      -0.834000       15.9994           0
     25732 TIP3     5719     TIP3     H1       HT       0.417000       1.00800           0
     25733 TIP3     5719     TIP3     H2       HT       0.417000       1.00800           0
     25734 TIP3     5720     TIP3     OH2      OT      -0.834000       15.9994           0
     25735 TIP3     5720     TIP3     H1       HT       0.417000       1.00800           0
     25736 TIP3     5720     TIP3     H2       HT       0.417000       1.00800           0
     25737 TIP3     5721     TIP3     OH2      OT      -0.834000       15.9994           0
     25738 TIP3     5721     TIP3     H1       HT       0.417000       1.00800           0
     25739 TIP3     5721     TIP3     H2       HT       0.417000       1.00800           0
     25740 TIP3     5722     TIP3     OH2      OT      -0.834000       15.9994           0
     25741 TIP3     5722     TIP3     H1       HT       0.417000       1.00800           0
     25742 TIP3     5722     TIP3     H2       HT       0.417000       1.00800           0
     25743 TIP3     5723     TIP3     OH2      OT      -0.834000       15.9994           0
     25744 TIP3     5723     TIP3     H1       HT       0.417000       1.00800           0
     25745 TIP3     5723     TIP3     H2       HT       0.417000       1.00800           0
     25746 TIP3     5724     TIP3     OH2      OT      -0.834000       15.9994           0
     25747 TIP3     5724     TIP3     H1       HT       0.417000       1.00800           0
     25748 TIP3     5724     TIP3     H2       HT       0.417000       1.00800           0
     25749 TIP3     5725     TIP3     OH2      OT      -0.834000       15.9994           0
     25750 TIP3     5725     TIP3     H1       HT       0.417000       1.00800           0
     25751 TIP3     5725     TIP3     H2       HT       0.417000       1.00800           0
     25752 TIP3     5726     TIP3     OH2      OT      -0.834000       15.9994           0
     25753 TIP3     5726     TIP3     H1       HT       0.417000       1.00800           0
     25754 TIP3     5726     TIP3     H2       HT       0.417000       1.00800           0
     25755 TIP3     5727     TIP3     OH2      OT      -0.834000       15.9994           0
     25756 TIP3     5727     TIP3     H1       HT       0.417000       1.00800           0
     25757 TIP3     5727     TIP3     H2       HT       0.417000       1.00800           0
     25758 TIP3     5728     TIP3     OH2      OT      -0.834000       15.9994           0
     25759 TIP3     5728     TIP3     H1       HT       0.417000       1.00800           0
     25760 TIP3     5728     TIP3     H2       HT       0.417000       1.00800           0
     25761 TIP3     5729     TIP3     OH2      OT      -0.834000       15.9994           0
     25762 TIP3     5729     TIP3     H1       HT       0.417000       1.00800           0
     25763 TIP3     5729     TIP3     H2       HT       0.417000       1.00800           0
     25764 TIP3     5730     TIP3     OH2      OT      -0.834000       15.9994           0
     25765 TIP3     5730     TIP3     H1       HT       0.417000       1.00800           0
     25766 TIP3     5730     TIP3     H2       HT       0.417000       1.00800           0
     25767 TIP3     5731     TIP3     OH2      OT      -0.834000       15.9994           0
     25768 TIP3     5731     TIP3     H1       HT       0.417000       1.00800           0
     25769 TIP3     5731     TIP3     H2       HT       0.417000       1.00800           0
     25770 TIP3     5732     TIP3     OH2      OT      -0.834000       15.9994           0
     25771 TIP3     5732     TIP3     H1       HT       0.417000       1.00800           0
     25772 TIP3     5732     TIP3     H2       HT       0.417000       1.00800           0
     25773 TIP3     5733     TIP3     OH2      OT      -0.834000       15.9994           0
     25774 TIP3     5733     TIP3     H1       HT       0.417000       1.00800           0
     25775 TIP3     5733     TIP3     H2       HT       0.417000       1.00800           0
     25776 TIP3     5734     TIP3     OH2      OT      -0.834000       15.9994           0
     25777 TIP3     5734     TIP3     H1       HT       0.417000       1.00800           0
     25778 TIP3     5734     TIP3     H2       HT       0.417000       1.00800           0
     25779 TIP3     5735     TIP3     OH2      OT      -0.834000       15.9994           0
     25780 TIP3     5735     TIP3     H1       HT       0.417000       1.00800           0
     25781 TIP3     5735     TIP3     H2       HT       0.417000       1.00800           0
     25782 TIP3     5736     TIP3     OH2      OT      -0.834000       15.9994           0
     25783 TIP3     5736     TIP3     H1       HT       0.417000       1.00800           0
     25784 TIP3     5736     TIP3     H2       HT       0.417000       1.00800           0
     25785 TIP3     5737     TIP3     OH2      OT      -0.834000       15.9994           0
     25786 TIP3     5737     TIP3     H1       HT       0.417000       1.00800           0
     25787 TIP3     5737     TIP3     H2       HT       0.417000       1.00800           0
     25788 TIP3     5738     TIP3     OH2      OT      -0.834000       15.9994           0
     25789 TIP3     5738     TIP3     H1       HT       0.417000       1.00800           0
     25790 TIP3     5738     TIP3     H2       HT       0.417000       1.00800           0
     25791 TIP3     5739     TIP3     OH2      OT      -0.834000       15.9994           0
     25792 TIP3     5739     TIP3     H1       HT       0.417000       1.00800           0
     25793 TIP3     5739     TIP3     H2       HT       0.417000       1.00800           0
     25794 TIP3     5740     TIP3     OH2      OT      -0.834000       15.9994           0
     25795 TIP3     5740     TIP3     H1       HT       0.417000       1.00800           0
     25796 TIP3     5740     TIP3     H2       HT       0.417000       1.00800           0
     25797 TIP3     5741     TIP3     OH2      OT      -0.834000       15.9994           0
     25798 TIP3     5741     TIP3     H1       HT       0.417000       1.00800           0
     25799 TIP3     5741     TIP3     H2       HT       0.417000       1.00800           0
     25800 TIP3     5742     TIP3     OH2      OT      -0.834000       15.9994           0
     25801 TIP3     5742     TIP3     H1       HT       0.417000       1.00800           0
     25802 TIP3     5742     TIP3     H2       HT       0.417000       1.00800           0
     25803 TIP3     5743     TIP3     OH2      OT      -0.834000       15.9994           0
     25804 TIP3     5743     TIP3     H1       HT       0.417000       1.00800           0
     25805 TIP3     5743     TIP3     H2       HT       0.417000       1.00800           0
     25806 TIP3     5744     TIP3     OH2      OT      -0.834000       15.9994           0
     25807 TIP3     5744     TIP3     H1       HT       0.417000       1.00800           0
     25808 TIP3     5744     TIP3     H2       HT       0.417000       1.00800           0
     25809 TIP3     5745     TIP3     OH2      OT      -0.834000       15.9994           0
     25810 TIP3     5745     TIP3     H1       HT       0.417000       1.00800           0
     25811 TIP3     5745     TIP3     H2       HT       0.417000       1.00800           0
     25812 TIP3     5746     TIP3     OH2      OT      -0.834000       15.9994           0
     25813 TIP3     5746     TIP3     H1       HT       0.417000       1.00800           0
     25814 TIP3     5746     TIP3     H2       HT       0.417000       1.00800           0
     25815 TIP3     5747     TIP3     OH2      OT      -0.834000       15.9994           0
     25816 TIP3     5747     TIP3     H1       HT       0.417000       1.00800           0
     25817 TIP3     5747     TIP3     H2       HT       0.417000       1.00800           0
     25818 TIP3     5748     TIP3     OH2      OT      -0.834000       15.9994           0
     25819 TIP3     5748     TIP3     H1       HT       0.417000       1.00800           0
     25820 TIP3     5748     TIP3     H2       HT       0.417000       1.00800           0
     25821 TIP3     5749     TIP3     OH2      OT      -0.834000       15.9994           0
     25822 TIP3     5749     TIP3     H1       HT       0.417000       1.00800           0
     25823 TIP3     5749     TIP3     H2       HT       0.417000       1.00800           0
     25824 TIP3     5750     TIP3     OH2      OT      -0.834000       15.9994           0
     25825 TIP3     5750     TIP3     H1       HT       0.417000       1.00800           0
     25826 TIP3     5750     TIP3     H2       HT       0.417000       1.00800           0
     25827 TIP3     5751     TIP3     OH2      OT      -0.834000       15.9994           0
     25828 TIP3     5751     TIP3     H1       HT       0.417000       1.00800           0
     25829 TIP3     5751     TIP3     H2       HT       0.417000       1.00800           0
     25830 TIP3     5752     TIP3     OH2      OT      -0.834000       15.9994           0
     25831 TIP3     5752     TIP3     H1       HT       0.417000       1.00800           0
     25832 TIP3     5752     TIP3     H2       HT       0.417000       1.00800           0
     25833 TIP3     5753     TIP3     OH2      OT      -0.834000       15.9994           0
     25834 TIP3     5753     TIP3     H1       HT       0.417000       1.00800           0
     25835 TIP3     5753     TIP3     H2       HT       0.417000       1.00800           0
     25836 TIP3     5754     TIP3     OH2      OT      -0.834000       15.9994           0
     25837 TIP3     5754     TIP3     H1       HT       0.417000       1.00800           0
     25838 TIP3     5754     TIP3     H2       HT       0.417000       1.00800           0
     25839 TIP3     5755     TIP3     OH2      OT      -0.834000       15.9994           0
     25840 TIP3     5755     TIP3     H1       HT       0.417000       1.00800           0
     25841 TIP3     5755     TIP3     H2       HT       0.417000       1.00800           0
     25842 TIP3     5756     TIP3     OH2      OT      -0.834000       15.9994           0
     25843 TIP3     5756     TIP3     H1       HT       0.417000       1.00800           0
     25844 TIP3     5756     TIP3     H2       HT       0.417000       1.00800           0
     25845 TIP3     5757     TIP3     OH2      OT      -0.834000       15.9994           0
     25846 TIP3     5757     TIP3     H1       HT       0.417000       1.00800           0
     25847 TIP3     5757     TIP3     H2       HT       0.417000       1.00800           0
     25848 TIP3     5758     TIP3     OH2      OT      -0.834000       15.9994           0
     25849 TIP3     5758     TIP3     H1       HT       0.417000       1.00800           0
     25850 TIP3     5758     TIP3     H2       HT       0.417000       1.00800           0
     25851 TIP3     5759     TIP3     OH2      OT      -0.834000       15.9994           0
     25852 TIP3     5759     TIP3     H1       HT       0.417000       1.00800           0
     25853 TIP3     5759     TIP3     H2       HT       0.417000       1.00800           0
     25854 TIP3     5760     TIP3     OH2      OT      -0.834000       15.9994           0
     25855 TIP3     5760     TIP3     H1       HT       0.417000       1.00800           0
     25856 TIP3     5760     TIP3     H2       HT       0.417000       1.00800           0
     25857 TIP3     5761     TIP3     OH2      OT      -0.834000       15.9994           0
     25858 TIP3     5761     TIP3     H1       HT       0.417000       1.00800           0
     25859 TIP3     5761     TIP3     H2       HT       0.417000       1.00800           0
     25860 TIP3     5762     TIP3     OH2      OT      -0.834000       15.9994           0
     25861 TIP3     5762     TIP3     H1       HT       0.417000       1.00800           0
     25862 TIP3     5762     TIP3     H2       HT       0.417000       1.00800           0
     25863 TIP3     5763     TIP3     OH2      OT      -0.834000       15.9994           0
     25864 TIP3     5763     TIP3     H1       HT       0.417000       1.00800           0
     25865 TIP3     5763     TIP3     H2       HT       0.417000       1.00800           0
     25866 TIP3     5764     TIP3     OH2      OT      -0.834000       15.9994           0
     25867 TIP3     5764     TIP3     H1       HT       0.417000       1.00800           0
     25868 TIP3     5764     TIP3     H2       HT       0.417000       1.00800           0
     25869 TIP3     5765     TIP3     OH2      OT      -0.834000       15.9994           0
     25870 TIP3     5765     TIP3     H1       HT       0.417000       1.00800           0
     25871 TIP3     5765     TIP3     H2       HT       0.417000       1.00800           0
     25872 TIP3     5766     TIP3     OH2      OT      -0.834000       15.9994           0
     25873 TIP3     5766     TIP3     H1       HT       0.417000       1.00800           0
     25874 TIP3     5766     TIP3     H2       HT       0.417000       1.00800           0
     25875 TIP3     5767     TIP3     OH2      OT      -0.834000       15.9994           0
     25876 TIP3     5767     TIP3     H1       HT       0.417000       1.00800           0
     25877 TIP3     5767     TIP3     H2       HT       0.417000       1.00800           0
     25878 TIP3     5768     TIP3     OH2      OT      -0.834000       15.9994           0
     25879 TIP3     5768     TIP3     H1       HT       0.417000       1.00800           0
     25880 TIP3     5768     TIP3     H2       HT       0.417000       1.00800           0
     25881 TIP3     5769     TIP3     OH2      OT      -0.834000       15.9994           0
     25882 TIP3     5769     TIP3     H1       HT       0.417000       1.00800           0
     25883 TIP3     5769     TIP3     H2       HT       0.417000       1.00800           0
     25884 TIP3     5770     TIP3     OH2      OT      -0.834000       15.9994           0
     25885 TIP3     5770     TIP3     H1       HT       0.417000       1.00800           0
     25886 TIP3     5770     TIP3     H2       HT       0.417000       1.00800           0
     25887 TIP3     5771     TIP3     OH2      OT      -0.834000       15.9994           0
     25888 TIP3     5771     TIP3     H1       HT       0.417000       1.00800           0
     25889 TIP3     5771     TIP3     H2       HT       0.417000       1.00800           0
     25890 TIP3     5772     TIP3     OH2      OT      -0.834000       15.9994           0
     25891 TIP3     5772     TIP3     H1       HT       0.417000       1.00800           0
     25892 TIP3     5772     TIP3     H2       HT       0.417000       1.00800           0
     25893 TIP3     5773     TIP3     OH2      OT      -0.834000       15.9994           0
     25894 TIP3     5773     TIP3     H1       HT       0.417000       1.00800           0
     25895 TIP3     5773     TIP3     H2       HT       0.417000       1.00800           0
     25896 TIP3     5774     TIP3     OH2      OT      -0.834000       15.9994           0
     25897 TIP3     5774     TIP3     H1       HT       0.417000       1.00800           0
     25898 TIP3     5774     TIP3     H2       HT       0.417000       1.00800           0
     25899 TIP3     5775     TIP3     OH2      OT      -0.834000       15.9994           0
     25900 TIP3     5775     TIP3     H1       HT       0.417000       1.00800           0
     25901 TIP3     5775     TIP3     H2       HT       0.417000       1.00800           0
     25902 TIP3     5776     TIP3     OH2      OT      -0.834000       15.9994           0
     25903 TIP3     5776     TIP3     H1       HT       0.417000       1.00800           0
     25904 TIP3     5776     TIP3     H2       HT       0.417000       1.00800           0
     25905 TIP3     5777     TIP3     OH2      OT      -0.834000       15.9994           0
     25906 TIP3     5777     TIP3     H1       HT       0.417000       1.00800           0
     25907 TIP3     5777     TIP3     H2       HT       0.417000       1.00800           0
     25908 TIP3     5778     TIP3     OH2      OT      -0.834000       15.9994           0
     25909 TIP3     5778     TIP3     H1       HT       0.417000       1.00800           0
     25910 TIP3     5778     TIP3     H2       HT       0.417000       1.00800           0
     25911 TIP3     5779     TIP3     OH2      OT      -0.834000       15.9994           0
     25912 TIP3     5779     TIP3     H1       HT       0.417000       1.00800           0
     25913 TIP3     5779     TIP3     H2       HT       0.417000       1.00800           0
     25914 TIP3     5780     TIP3     OH2      OT      -0.834000       15.9994           0
     25915 TIP3     5780     TIP3     H1       HT       0.417000       1.00800           0
     25916 TIP3     5780     TIP3     H2       HT       0.417000       1.00800           0
     25917 TIP3     5781     TIP3     OH2      OT      -0.834000       15.9994           0
     25918 TIP3     5781     TIP3     H1       HT       0.417000       1.00800           0
     25919 TIP3     5781     TIP3     H2       HT       0.417000       1.00800           0
     25920 TIP3     5782     TIP3     OH2      OT      -0.834000       15.9994           0
     25921 TIP3     5782     TIP3     H1       HT       0.417000       1.00800           0
     25922 TIP3     5782     TIP3     H2       HT       0.417000       1.00800           0
     25923 TIP3     5783     TIP3     OH2      OT      -0.834000       15.9994           0
     25924 TIP3     5783     TIP3     H1       HT       0.417000       1.00800           0
     25925 TIP3     5783     TIP3     H2       HT       0.417000       1.00800           0
     25926 TIP3     5784     TIP3     OH2      OT      -0.834000       15.9994           0
     25927 TIP3     5784     TIP3     H1       HT       0.417000       1.00800           0
     25928 TIP3     5784     TIP3     H2       HT       0.417000       1.00800           0
     25929 TIP3     5785     TIP3     OH2      OT      -0.834000       15.9994           0
     25930 TIP3     5785     TIP3     H1       HT       0.417000       1.00800           0
     25931 TIP3     5785     TIP3     H2       HT       0.417000       1.00800           0
     25932 TIP3     5786     TIP3     OH2      OT      -0.834000       15.9994           0
     25933 TIP3     5786     TIP3     H1       HT       0.417000       1.00800           0
     25934 TIP3     5786     TIP3     H2       HT       0.417000       1.00800           0
     25935 TIP3     5787     TIP3     OH2      OT      -0.834000       15.9994           0
     25936 TIP3     5787     TIP3     H1       HT       0.417000       1.00800           0
     25937 TIP3     5787     TIP3     H2       HT       0.417000       1.00800           0
     25938 TIP3     5788     TIP3     OH2      OT      -0.834000       15.9994           0
     25939 TIP3     5788     TIP3     H1       HT       0.417000       1.00800           0
     25940 TIP3     5788     TIP3     H2       HT       0.417000       1.00800           0
     25941 TIP3     5789     TIP3     OH2      OT      -0.834000       15.9994           0
     25942 TIP3     5789     TIP3     H1       HT       0.417000       1.00800           0
     25943 TIP3     5789     TIP3     H2       HT       0.417000       1.00800           0
     25944 TIP3     5790     TIP3     OH2      OT      -0.834000       15.9994           0
     25945 TIP3     5790     TIP3     H1       HT       0.417000       1.00800           0
     25946 TIP3     5790     TIP3     H2       HT       0.417000       1.00800           0
     25947 TIP3     5791     TIP3     OH2      OT      -0.834000       15.9994           0
     25948 TIP3     5791     TIP3     H1       HT       0.417000       1.00800           0
     25949 TIP3     5791     TIP3     H2       HT       0.417000       1.00800           0
     25950 TIP3     5792     TIP3     OH2      OT      -0.834000       15.9994           0
     25951 TIP3     5792     TIP3     H1       HT       0.417000       1.00800           0
     25952 TIP3     5792     TIP3     H2       HT       0.417000       1.00800           0
     25953 TIP3     5793     TIP3     OH2      OT      -0.834000       15.9994           0
     25954 TIP3     5793     TIP3     H1       HT       0.417000       1.00800           0
     25955 TIP3     5793     TIP3     H2       HT       0.417000       1.00800           0
     25956 TIP3     5794     TIP3     OH2      OT      -0.834000       15.9994           0
     25957 TIP3     5794     TIP3     H1       HT       0.417000       1.00800           0
     25958 TIP3     5794     TIP3     H2       HT       0.417000       1.00800           0
     25959 TIP3     5795     TIP3     OH2      OT      -0.834000       15.9994           0
     25960 TIP3     5795     TIP3     H1       HT       0.417000       1.00800           0
     25961 TIP3     5795     TIP3     H2       HT       0.417000       1.00800           0
     25962 TIP3     5796     TIP3     OH2      OT      -0.834000       15.9994           0
     25963 TIP3     5796     TIP3     H1       HT       0.417000       1.00800           0
     25964 TIP3     5796     TIP3     H2       HT       0.417000       1.00800           0
     25965 TIP3     5797     TIP3     OH2      OT      -0.834000       15.9994           0
     25966 TIP3     5797     TIP3     H1       HT       0.417000       1.00800           0
     25967 TIP3     5797     TIP3     H2       HT       0.417000       1.00800           0
     25968 TIP3     5798     TIP3     OH2      OT      -0.834000       15.9994           0
     25969 TIP3     5798     TIP3     H1       HT       0.417000       1.00800           0
     25970 TIP3     5798     TIP3     H2       HT       0.417000       1.00800           0
     25971 TIP3     5799     TIP3     OH2      OT      -0.834000       15.9994           0
     25972 TIP3     5799     TIP3     H1       HT       0.417000       1.00800           0
     25973 TIP3     5799     TIP3     H2       HT       0.417000       1.00800           0
     25974 TIP3     5800     TIP3     OH2      OT      -0.834000       15.9994           0
     25975 TIP3     5800     TIP3     H1       HT       0.417000       1.00800           0
     25976 TIP3     5800     TIP3     H2       HT       0.417000       1.00800           0
     25977 TIP3     5801     TIP3     OH2      OT      -0.834000       15.9994           0
     25978 TIP3     5801     TIP3     H1       HT       0.417000       1.00800           0
     25979 TIP3     5801     TIP3     H2       HT       0.417000       1.00800           0
     25980 TIP3     5802     TIP3     OH2      OT      -0.834000       15.9994           0
     25981 TIP3     5802     TIP3     H1       HT       0.417000       1.00800           0
     25982 TIP3     5802     TIP3     H2       HT       0.417000       1.00800           0
     25983 TIP3     5803     TIP3     OH2      OT      -0.834000       15.9994           0
     25984 TIP3     5803     TIP3     H1       HT       0.417000       1.00800           0
     25985 TIP3     5803     TIP3     H2       HT       0.417000       1.00800           0
     25986 TIP3     5804     TIP3     OH2      OT      -0.834000       15.9994           0
     25987 TIP3     5804     TIP3     H1       HT       0.417000       1.00800           0
     25988 TIP3     5804     TIP3     H2       HT       0.417000       1.00800           0
     25989 TIP3     5805     TIP3     OH2      OT      -0.834000       15.9994           0
     25990 TIP3     5805     TIP3     H1       HT       0.417000       1.00800           0
     25991 TIP3     5805     TIP3     H2       HT       0.417000       1.00800           0
     25992 TIP3     5806     TIP3     OH2      OT      -0.834000       15.9994           0
     25993 TIP3     5806     TIP3     H1       HT       0.417000       1.00800           0
     25994 TIP3     5806     TIP3     H2       HT       0.417000       1.00800           0
     25995 TIP3     5807     TIP3     OH2      OT      -0.834000       15.9994           0
     25996 TIP3     5807     TIP3     H1       HT       0.417000       1.00800           0
     25997 TIP3     5807     TIP3     H2       HT       0.417000       1.00800           0
     25998 TIP3     5808     TIP3     OH2      OT      -0.834000       15.9994           0
     25999 TIP3     5808     TIP3     H1       HT       0.417000       1.00800           0
     26000 TIP3     5808     TIP3     H2       HT       0.417000       1.00800           0
     26001 TIP3     5809     TIP3     OH2      OT      -0.834000       15.9994           0
     26002 TIP3     5809     TIP3     H1       HT       0.417000       1.00800           0
     26003 TIP3     5809     TIP3     H2       HT       0.417000       1.00800           0
     26004 TIP3     5810     TIP3     OH2      OT      -0.834000       15.9994           0
     26005 TIP3     5810     TIP3     H1       HT       0.417000       1.00800           0
     26006 TIP3     5810     TIP3     H2       HT       0.417000       1.00800           0
     26007 TIP3     5811     TIP3     OH2      OT      -0.834000       15.9994           0
     26008 TIP3     5811     TIP3     H1       HT       0.417000       1.00800           0
     26009 TIP3     5811     TIP3     H2       HT       0.417000       1.00800           0
     26010 TIP3     5812     TIP3     OH2      OT      -0.834000       15.9994           0
     26011 TIP3     5812     TIP3     H1       HT       0.417000       1.00800           0
     26012 TIP3     5812     TIP3     H2       HT       0.417000       1.00800           0
     26013 TIP3     5813     TIP3     OH2      OT      -0.834000       15.9994           0
     26014 TIP3     5813     TIP3     H1       HT       0.417000       1.00800           0
     26015 TIP3     5813     TIP3     H2       HT       0.417000       1.00800           0
     26016 TIP3     5814     TIP3     OH2      OT      -0.834000       15.9994           0
     26017 TIP3     5814     TIP3     H1       HT       0.417000       1.00800           0
     26018 TIP3     5814     TIP3     H2       HT       0.417000       1.00800           0
     26019 TIP3     5815     TIP3     OH2      OT      -0.834000       15.9994           0
     26020 TIP3     5815     TIP3     H1       HT       0.417000       1.00800           0
     26021 TIP3     5815     TIP3     H2       HT       0.417000       1.00800           0
     26022 TIP3     5816     TIP3     OH2      OT      -0.834000       15.9994           0
     26023 TIP3     5816     TIP3     H1       HT       0.417000       1.00800           0
     26024 TIP3     5816     TIP3     H2       HT       0.417000       1.00800           0
     26025 TIP3     5817     TIP3     OH2      OT      -0.834000       15.9994           0
     26026 TIP3     5817     TIP3     H1       HT       0.417000       1.00800           0
     26027 TIP3     5817     TIP3     H2       HT       0.417000       1.00800           0
     26028 TIP3     5818     TIP3     OH2      OT      -0.834000       15.9994           0
     26029 TIP3     5818     TIP3     H1       HT       0.417000       1.00800           0
     26030 TIP3     5818     TIP3     H2       HT       0.417000       1.00800           0
     26031 TIP3     5819     TIP3     OH2      OT      -0.834000       15.9994           0
     26032 TIP3     5819     TIP3     H1       HT       0.417000       1.00800           0
     26033 TIP3     5819     TIP3     H2       HT       0.417000       1.00800           0
     26034 TIP3     5820     TIP3     OH2      OT      -0.834000       15.9994           0
     26035 TIP3     5820     TIP3     H1       HT       0.417000       1.00800           0
     26036 TIP3     5820     TIP3     H2       HT       0.417000       1.00800           0
     26037 TIP3     5821     TIP3     OH2      OT      -0.834000       15.9994           0
     26038 TIP3     5821     TIP3     H1       HT       0.417000       1.00800           0
     26039 TIP3     5821     TIP3     H2       HT       0.417000       1.00800           0
     26040 TIP3     5822     TIP3     OH2      OT      -0.834000       15.9994           0
     26041 TIP3     5822     TIP3     H1       HT       0.417000       1.00800           0
     26042 TIP3     5822     TIP3     H2       HT       0.417000       1.00800           0
     26043 TIP3     5823     TIP3     OH2      OT      -0.834000       15.9994           0
     26044 TIP3     5823     TIP3     H1       HT       0.417000       1.00800           0
     26045 TIP3     5823     TIP3     H2       HT       0.417000       1.00800           0
     26046 TIP3     5824     TIP3     OH2      OT      -0.834000       15.9994           0
     26047 TIP3     5824     TIP3     H1       HT       0.417000       1.00800           0
     26048 TIP3     5824     TIP3     H2       HT       0.417000       1.00800           0
     26049 TIP3     5825     TIP3     OH2      OT      -0.834000       15.9994           0
     26050 TIP3     5825     TIP3     H1       HT       0.417000       1.00800           0
     26051 TIP3     5825     TIP3     H2       HT       0.417000       1.00800           0
     26052 TIP3     5826     TIP3     OH2      OT      -0.834000       15.9994           0
     26053 TIP3     5826     TIP3     H1       HT       0.417000       1.00800           0
     26054 TIP3     5826     TIP3     H2       HT       0.417000       1.00800           0
     26055 TIP3     5827     TIP3     OH2      OT      -0.834000       15.9994           0
     26056 TIP3     5827     TIP3     H1       HT       0.417000       1.00800           0
     26057 TIP3     5827     TIP3     H2       HT       0.417000       1.00800           0
     26058 TIP3     5828     TIP3     OH2      OT      -0.834000       15.9994           0
     26059 TIP3     5828     TIP3     H1       HT       0.417000       1.00800           0
     26060 TIP3     5828     TIP3     H2       HT       0.417000       1.00800           0
     26061 TIP3     5829     TIP3     OH2      OT      -0.834000       15.9994           0
     26062 TIP3     5829     TIP3     H1       HT       0.417000       1.00800           0
     26063 TIP3     5829     TIP3     H2       HT       0.417000       1.00800           0
     26064 TIP3     5830     TIP3     OH2      OT      -0.834000       15.9994           0
     26065 TIP3     5830     TIP3     H1       HT       0.417000       1.00800           0
     26066 TIP3     5830     TIP3     H2       HT       0.417000       1.00800           0
     26067 TIP3     5831     TIP3     OH2      OT      -0.834000       15.9994           0
     26068 TIP3     5831     TIP3     H1       HT       0.417000       1.00800           0
     26069 TIP3     5831     TIP3     H2       HT       0.417000       1.00800           0
     26070 TIP3     5832     TIP3     OH2      OT      -0.834000       15.9994           0
     26071 TIP3     5832     TIP3     H1       HT       0.417000       1.00800           0
     26072 TIP3     5832     TIP3     H2       HT       0.417000       1.00800           0
     26073 TIP3     5833     TIP3     OH2      OT      -0.834000       15.9994           0
     26074 TIP3     5833     TIP3     H1       HT       0.417000       1.00800           0
     26075 TIP3     5833     TIP3     H2       HT       0.417000       1.00800           0
     26076 TIP3     5834     TIP3     OH2      OT      -0.834000       15.9994           0
     26077 TIP3     5834     TIP3     H1       HT       0.417000       1.00800           0
     26078 TIP3     5834     TIP3     H2       HT       0.417000       1.00800           0
     26079 TIP3     5835     TIP3     OH2      OT      -0.834000       15.9994           0
     26080 TIP3     5835     TIP3     H1       HT       0.417000       1.00800           0
     26081 TIP3     5835     TIP3     H2       HT       0.417000       1.00800           0
     26082 TIP3     5836     TIP3     OH2      OT      -0.834000       15.9994           0
     26083 TIP3     5836     TIP3     H1       HT       0.417000       1.00800           0
     26084 TIP3     5836     TIP3     H2       HT       0.417000       1.00800           0
     26085 TIP3     5837     TIP3     OH2      OT      -0.834000       15.9994           0
     26086 TIP3     5837     TIP3     H1       HT       0.417000       1.00800           0
     26087 TIP3     5837     TIP3     H2       HT       0.417000       1.00800           0
     26088 TIP3     5838     TIP3     OH2      OT      -0.834000       15.9994           0
     26089 TIP3     5838     TIP3     H1       HT       0.417000       1.00800           0
     26090 TIP3     5838     TIP3     H2       HT       0.417000       1.00800           0
     26091 TIP3     5839     TIP3     OH2      OT      -0.834000       15.9994           0
     26092 TIP3     5839     TIP3     H1       HT       0.417000       1.00800           0
     26093 TIP3     5839     TIP3     H2       HT       0.417000       1.00800           0
     26094 TIP3     5840     TIP3     OH2      OT      -0.834000       15.9994           0
     26095 TIP3     5840     TIP3     H1       HT       0.417000       1.00800           0
     26096 TIP3     5840     TIP3     H2       HT       0.417000       1.00800           0
     26097 TIP3     5841     TIP3     OH2      OT      -0.834000       15.9994           0
     26098 TIP3     5841     TIP3     H1       HT       0.417000       1.00800           0
     26099 TIP3     5841     TIP3     H2       HT       0.417000       1.00800           0
     26100 TIP3     5842     TIP3     OH2      OT      -0.834000       15.9994           0
     26101 TIP3     5842     TIP3     H1       HT       0.417000       1.00800           0
     26102 TIP3     5842     TIP3     H2       HT       0.417000       1.00800           0
     26103 TIP3     5843     TIP3     OH2      OT      -0.834000       15.9994           0
     26104 TIP3     5843     TIP3     H1       HT       0.417000       1.00800           0
     26105 TIP3     5843     TIP3     H2       HT       0.417000       1.00800           0
     26106 TIP3     5844     TIP3     OH2      OT      -0.834000       15.9994           0
     26107 TIP3     5844     TIP3     H1       HT       0.417000       1.00800           0
     26108 TIP3     5844     TIP3     H2       HT       0.417000       1.00800           0
     26109 TIP3     5845     TIP3     OH2      OT      -0.834000       15.9994           0
     26110 TIP3     5845     TIP3     H1       HT       0.417000       1.00800           0
     26111 TIP3     5845     TIP3     H2       HT       0.417000       1.00800           0
     26112 TIP3     5846     TIP3     OH2      OT      -0.834000       15.9994           0
     26113 TIP3     5846     TIP3     H1       HT       0.417000       1.00800           0
     26114 TIP3     5846     TIP3     H2       HT       0.417000       1.00800           0
     26115 TIP3     5847     TIP3     OH2      OT      -0.834000       15.9994           0
     26116 TIP3     5847     TIP3     H1       HT       0.417000       1.00800           0
     26117 TIP3     5847     TIP3     H2       HT       0.417000       1.00800           0
     26118 TIP3     5848     TIP3     OH2      OT      -0.834000       15.9994           0
     26119 TIP3     5848     TIP3     H1       HT       0.417000       1.00800           0
     26120 TIP3     5848     TIP3     H2       HT       0.417000       1.00800           0
     26121 TIP3     5849     TIP3     OH2      OT      -0.834000       15.9994           0
     26122 TIP3     5849     TIP3     H1       HT       0.417000       1.00800           0
     26123 TIP3     5849     TIP3     H2       HT       0.417000       1.00800           0
     26124 TIP3     5850     TIP3     OH2      OT      -0.834000       15.9994           0
     26125 TIP3     5850     TIP3     H1       HT       0.417000       1.00800           0
     26126 TIP3     5850     TIP3     H2       HT       0.417000       1.00800           0
     26127 TIP3     5851     TIP3     OH2      OT      -0.834000       15.9994           0
     26128 TIP3     5851     TIP3     H1       HT       0.417000       1.00800           0
     26129 TIP3     5851     TIP3     H2       HT       0.417000       1.00800           0
     26130 TIP3     5852     TIP3     OH2      OT      -0.834000       15.9994           0
     26131 TIP3     5852     TIP3     H1       HT       0.417000       1.00800           0
     26132 TIP3     5852     TIP3     H2       HT       0.417000       1.00800           0
     26133 TIP3     5853     TIP3     OH2      OT      -0.834000       15.9994           0
     26134 TIP3     5853     TIP3     H1       HT       0.417000       1.00800           0
     26135 TIP3     5853     TIP3     H2       HT       0.417000       1.00800           0
     26136 TIP3     5854     TIP3     OH2      OT      -0.834000       15.9994           0
     26137 TIP3     5854     TIP3     H1       HT       0.417000       1.00800           0
     26138 TIP3     5854     TIP3     H2       HT       0.417000       1.00800           0
     26139 TIP3     5855     TIP3     OH2      OT      -0.834000       15.9994           0
     26140 TIP3     5855     TIP3     H1       HT       0.417000       1.00800           0
     26141 TIP3     5855     TIP3     H2       HT       0.417000       1.00800           0
     26142 TIP3     5856     TIP3     OH2      OT      -0.834000       15.9994           0
     26143 TIP3     5856     TIP3     H1       HT       0.417000       1.00800           0
     26144 TIP3     5856     TIP3     H2       HT       0.417000       1.00800           0
     26145 TIP3     5857     TIP3     OH2      OT      -0.834000       15.9994           0
     26146 TIP3     5857     TIP3     H1       HT       0.417000       1.00800           0
     26147 TIP3     5857     TIP3     H2       HT       0.417000       1.00800           0
     26148 TIP3     5858     TIP3     OH2      OT      -0.834000       15.9994           0
     26149 TIP3     5858     TIP3     H1       HT       0.417000       1.00800           0
     26150 TIP3     5858     TIP3     H2       HT       0.417000       1.00800           0
     26151 TIP3     5859     TIP3     OH2      OT      -0.834000       15.9994           0
     26152 TIP3     5859     TIP3     H1       HT       0.417000       1.00800           0
     26153 TIP3     5859     TIP3     H2       HT       0.417000       1.00800           0
     26154 TIP3     5860     TIP3     OH2      OT      -0.834000       15.9994           0
     26155 TIP3     5860     TIP3     H1       HT       0.417000       1.00800           0
     26156 TIP3     5860     TIP3     H2       HT       0.417000       1.00800           0
     26157 TIP3     5861     TIP3     OH2      OT      -0.834000       15.9994           0
     26158 TIP3     5861     TIP3     H1       HT       0.417000       1.00800           0
     26159 TIP3     5861     TIP3     H2       HT       0.417000       1.00800           0
     26160 TIP3     5862     TIP3     OH2      OT      -0.834000       15.9994           0
     26161 TIP3     5862     TIP3     H1       HT       0.417000       1.00800           0
     26162 TIP3     5862     TIP3     H2       HT       0.417000       1.00800           0
     26163 TIP3     5863     TIP3     OH2      OT      -0.834000       15.9994           0
     26164 TIP3     5863     TIP3     H1       HT       0.417000       1.00800           0
     26165 TIP3     5863     TIP3     H2       HT       0.417000       1.00800           0
     26166 TIP3     5864     TIP3     OH2      OT      -0.834000       15.9994           0
     26167 TIP3     5864     TIP3     H1       HT       0.417000       1.00800           0
     26168 TIP3     5864     TIP3     H2       HT       0.417000       1.00800           0
     26169 TIP3     5865     TIP3     OH2      OT      -0.834000       15.9994           0
     26170 TIP3     5865     TIP3     H1       HT       0.417000       1.00800           0
     26171 TIP3     5865     TIP3     H2       HT       0.417000       1.00800           0
     26172 TIP3     5866     TIP3     OH2      OT      -0.834000       15.9994           0
     26173 TIP3     5866     TIP3     H1       HT       0.417000       1.00800           0
     26174 TIP3     5866     TIP3     H2       HT       0.417000       1.00800           0
     26175 TIP3     5867     TIP3     OH2      OT      -0.834000       15.9994           0
     26176 TIP3     5867     TIP3     H1       HT       0.417000       1.00800           0
     26177 TIP3     5867     TIP3     H2       HT       0.417000       1.00800           0
     26178 TIP3     5868     TIP3     OH2      OT      -0.834000       15.9994           0
     26179 TIP3     5868     TIP3     H1       HT       0.417000       1.00800           0
     26180 TIP3     5868     TIP3     H2       HT       0.417000       1.00800           0
     26181 TIP3     5869     TIP3     OH2      OT      -0.834000       15.9994           0
     26182 TIP3     5869     TIP3     H1       HT       0.417000       1.00800           0
     26183 TIP3     5869     TIP3     H2       HT       0.417000       1.00800           0
     26184 TIP3     5870     TIP3     OH2      OT      -0.834000       15.9994           0
     26185 TIP3     5870     TIP3     H1       HT       0.417000       1.00800           0
     26186 TIP3     5870     TIP3     H2       HT       0.417000       1.00800           0
     26187 TIP3     5871     TIP3     OH2      OT      -0.834000       15.9994           0
     26188 TIP3     5871     TIP3     H1       HT       0.417000       1.00800           0
     26189 TIP3     5871     TIP3     H2       HT       0.417000       1.00800           0
     26190 TIP3     5872     TIP3     OH2      OT      -0.834000       15.9994           0
     26191 TIP3     5872     TIP3     H1       HT       0.417000       1.00800           0
     26192 TIP3     5872     TIP3     H2       HT       0.417000       1.00800           0
     26193 TIP3     5873     TIP3     OH2      OT      -0.834000       15.9994           0
     26194 TIP3     5873     TIP3     H1       HT       0.417000       1.00800           0
     26195 TIP3     5873     TIP3     H2       HT       0.417000       1.00800           0
     26196 TIP3     5874     TIP3     OH2      OT      -0.834000       15.9994           0
     26197 TIP3     5874     TIP3     H1       HT       0.417000       1.00800           0
     26198 TIP3     5874     TIP3     H2       HT       0.417000       1.00800           0
     26199 TIP3     5875     TIP3     OH2      OT      -0.834000       15.9994           0
     26200 TIP3     5875     TIP3     H1       HT       0.417000       1.00800           0
     26201 TIP3     5875     TIP3     H2       HT       0.417000       1.00800           0
     26202 TIP3     5876     TIP3     OH2      OT      -0.834000       15.9994           0
     26203 TIP3     5876     TIP3     H1       HT       0.417000       1.00800           0
     26204 TIP3     5876     TIP3     H2       HT       0.417000       1.00800           0
     26205 TIP3     5877     TIP3     OH2      OT      -0.834000       15.9994           0
     26206 TIP3     5877     TIP3     H1       HT       0.417000       1.00800           0
     26207 TIP3     5877     TIP3     H2       HT       0.417000       1.00800           0
     26208 TIP3     5878     TIP3     OH2      OT      -0.834000       15.9994           0
     26209 TIP3     5878     TIP3     H1       HT       0.417000       1.00800           0
     26210 TIP3     5878     TIP3     H2       HT       0.417000       1.00800           0
     26211 TIP3     5879     TIP3     OH2      OT      -0.834000       15.9994           0
     26212 TIP3     5879     TIP3     H1       HT       0.417000       1.00800           0
     26213 TIP3     5879     TIP3     H2       HT       0.417000       1.00800           0
     26214 TIP3     5880     TIP3     OH2      OT      -0.834000       15.9994           0
     26215 TIP3     5880     TIP3     H1       HT       0.417000       1.00800           0
     26216 TIP3     5880     TIP3     H2       HT       0.417000       1.00800           0
     26217 TIP3     5881     TIP3     OH2      OT      -0.834000       15.9994           0
     26218 TIP3     5881     TIP3     H1       HT       0.417000       1.00800           0
     26219 TIP3     5881     TIP3     H2       HT       0.417000       1.00800           0
     26220 TIP3     5882     TIP3     OH2      OT      -0.834000       15.9994           0
     26221 TIP3     5882     TIP3     H1       HT       0.417000       1.00800           0
     26222 TIP3     5882     TIP3     H2       HT       0.417000       1.00800           0
     26223 TIP3     5883     TIP3     OH2      OT      -0.834000       15.9994           0
     26224 TIP3     5883     TIP3     H1       HT       0.417000       1.00800           0
     26225 TIP3     5883     TIP3     H2       HT       0.417000       1.00800           0
     26226 TIP3     5884     TIP3     OH2      OT      -0.834000       15.9994           0
     26227 TIP3     5884     TIP3     H1       HT       0.417000       1.00800           0
     26228 TIP3     5884     TIP3     H2       HT       0.417000       1.00800           0
     26229 TIP3     5885     TIP3     OH2      OT      -0.834000       15.9994           0
     26230 TIP3     5885     TIP3     H1       HT       0.417000       1.00800           0
     26231 TIP3     5885     TIP3     H2       HT       0.417000       1.00800           0
     26232 TIP3     5886     TIP3     OH2      OT      -0.834000       15.9994           0
     26233 TIP3     5886     TIP3     H1       HT       0.417000       1.00800           0
     26234 TIP3     5886     TIP3     H2       HT       0.417000       1.00800           0
     26235 TIP3     5887     TIP3     OH2      OT      -0.834000       15.9994           0
     26236 TIP3     5887     TIP3     H1       HT       0.417000       1.00800           0
     26237 TIP3     5887     TIP3     H2       HT       0.417000       1.00800           0
     26238 TIP3     5888     TIP3     OH2      OT      -0.834000       15.9994           0
     26239 TIP3     5888     TIP3     H1       HT       0.417000       1.00800           0
     26240 TIP3     5888     TIP3     H2       HT       0.417000       1.00800           0
     26241 TIP3     5889     TIP3     OH2      OT      -0.834000       15.9994           0
     26242 TIP3     5889     TIP3     H1       HT       0.417000       1.00800           0
     26243 TIP3     5889     TIP3     H2       HT       0.417000       1.00800           0
     26244 TIP3     5890     TIP3     OH2      OT      -0.834000       15.9994           0
     26245 TIP3     5890     TIP3     H1       HT       0.417000       1.00800           0
     26246 TIP3     5890     TIP3     H2       HT       0.417000       1.00800           0
     26247 TIP3     5891     TIP3     OH2      OT      -0.834000       15.9994           0
     26248 TIP3     5891     TIP3     H1       HT       0.417000       1.00800           0
     26249 TIP3     5891     TIP3     H2       HT       0.417000       1.00800           0
     26250 TIP3     5892     TIP3     OH2      OT      -0.834000       15.9994           0
     26251 TIP3     5892     TIP3     H1       HT       0.417000       1.00800           0
     26252 TIP3     5892     TIP3     H2       HT       0.417000       1.00800           0
     26253 TIP3     5893     TIP3     OH2      OT      -0.834000       15.9994           0
     26254 TIP3     5893     TIP3     H1       HT       0.417000       1.00800           0
     26255 TIP3     5893     TIP3     H2       HT       0.417000       1.00800           0
     26256 TIP3     5894     TIP3     OH2      OT      -0.834000       15.9994           0
     26257 TIP3     5894     TIP3     H1       HT       0.417000       1.00800           0
     26258 TIP3     5894     TIP3     H2       HT       0.417000       1.00800           0
     26259 TIP3     5895     TIP3     OH2      OT      -0.834000       15.9994           0
     26260 TIP3     5895     TIP3     H1       HT       0.417000       1.00800           0
     26261 TIP3     5895     TIP3     H2       HT       0.417000       1.00800           0
     26262 TIP3     5896     TIP3     OH2      OT      -0.834000       15.9994           0
     26263 TIP3     5896     TIP3     H1       HT       0.417000       1.00800           0
     26264 TIP3     5896     TIP3     H2       HT       0.417000       1.00800           0
     26265 TIP3     5897     TIP3     OH2      OT      -0.834000       15.9994           0
     26266 TIP3     5897     TIP3     H1       HT       0.417000       1.00800           0
     26267 TIP3     5897     TIP3     H2       HT       0.417000       1.00800           0
     26268 TIP3     5898     TIP3     OH2      OT      -0.834000       15.9994           0
     26269 TIP3     5898     TIP3     H1       HT       0.417000       1.00800           0
     26270 TIP3     5898     TIP3     H2       HT       0.417000       1.00800           0
     26271 TIP3     5899     TIP3     OH2      OT      -0.834000       15.9994           0
     26272 TIP3     5899     TIP3     H1       HT       0.417000       1.00800           0
     26273 TIP3     5899     TIP3     H2       HT       0.417000       1.00800           0
     26274 TIP3     5900     TIP3     OH2      OT      -0.834000       15.9994           0
     26275 TIP3     5900     TIP3     H1       HT       0.417000       1.00800           0
     26276 TIP3     5900     TIP3     H2       HT       0.417000       1.00800           0
     26277 TIP3     5901     TIP3     OH2      OT      -0.834000       15.9994           0
     26278 TIP3     5901     TIP3     H1       HT       0.417000       1.00800           0
     26279 TIP3     5901     TIP3     H2       HT       0.417000       1.00800           0
     26280 TIP3     5902     TIP3     OH2      OT      -0.834000       15.9994           0
     26281 TIP3     5902     TIP3     H1       HT       0.417000       1.00800           0
     26282 TIP3     5902     TIP3     H2       HT       0.417000       1.00800           0
     26283 TIP3     5903     TIP3     OH2      OT      -0.834000       15.9994           0
     26284 TIP3     5903     TIP3     H1       HT       0.417000       1.00800           0
     26285 TIP3     5903     TIP3     H2       HT       0.417000       1.00800           0
     26286 TIP3     5904     TIP3     OH2      OT      -0.834000       15.9994           0
     26287 TIP3     5904     TIP3     H1       HT       0.417000       1.00800           0
     26288 TIP3     5904     TIP3     H2       HT       0.417000       1.00800           0
     26289 TIP3     5905     TIP3     OH2      OT      -0.834000       15.9994           0
     26290 TIP3     5905     TIP3     H1       HT       0.417000       1.00800           0
     26291 TIP3     5905     TIP3     H2       HT       0.417000       1.00800           0
     26292 TIP3     5906     TIP3     OH2      OT      -0.834000       15.9994           0
     26293 TIP3     5906     TIP3     H1       HT       0.417000       1.00800           0
     26294 TIP3     5906     TIP3     H2       HT       0.417000       1.00800           0
     26295 TIP3     5907     TIP3     OH2      OT      -0.834000       15.9994           0
     26296 TIP3     5907     TIP3     H1       HT       0.417000       1.00800           0
     26297 TIP3     5907     TIP3     H2       HT       0.417000       1.00800           0
     26298 TIP3     5908     TIP3     OH2      OT      -0.834000       15.9994           0
     26299 TIP3     5908     TIP3     H1       HT       0.417000       1.00800           0
     26300 TIP3     5908     TIP3     H2       HT       0.417000       1.00800           0
     26301 TIP3     5909     TIP3     OH2      OT      -0.834000       15.9994           0
     26302 TIP3     5909     TIP3     H1       HT       0.417000       1.00800           0
     26303 TIP3     5909     TIP3     H2       HT       0.417000       1.00800           0
     26304 TIP3     5910     TIP3     OH2      OT      -0.834000       15.9994           0
     26305 TIP3     5910     TIP3     H1       HT       0.417000       1.00800           0
     26306 TIP3     5910     TIP3     H2       HT       0.417000       1.00800           0
     26307 TIP3     5911     TIP3     OH2      OT      -0.834000       15.9994           0
     26308 TIP3     5911     TIP3     H1       HT       0.417000       1.00800           0
     26309 TIP3     5911     TIP3     H2       HT       0.417000       1.00800           0
     26310 TIP3     5912     TIP3     OH2      OT      -0.834000       15.9994           0
     26311 TIP3     5912     TIP3     H1       HT       0.417000       1.00800           0
     26312 TIP3     5912     TIP3     H2       HT       0.417000       1.00800           0
     26313 TIP3     5913     TIP3     OH2      OT      -0.834000       15.9994           0
     26314 TIP3     5913     TIP3     H1       HT       0.417000       1.00800           0
     26315 TIP3     5913     TIP3     H2       HT       0.417000       1.00800           0
     26316 TIP3     5914     TIP3     OH2      OT      -0.834000       15.9994           0
     26317 TIP3     5914     TIP3     H1       HT       0.417000       1.00800           0
     26318 TIP3     5914     TIP3     H2       HT       0.417000       1.00800           0
     26319 TIP3     5915     TIP3     OH2      OT      -0.834000       15.9994           0
     26320 TIP3     5915     TIP3     H1       HT       0.417000       1.00800           0
     26321 TIP3     5915     TIP3     H2       HT       0.417000       1.00800           0
     26322 TIP3     5916     TIP3     OH2      OT      -0.834000       15.9994           0
     26323 TIP3     5916     TIP3     H1       HT       0.417000       1.00800           0
     26324 TIP3     5916     TIP3     H2       HT       0.417000       1.00800           0
     26325 TIP3     5917     TIP3     OH2      OT      -0.834000       15.9994           0
     26326 TIP3     5917     TIP3     H1       HT       0.417000       1.00800           0
     26327 TIP3     5917     TIP3     H2       HT       0.417000       1.00800           0
     26328 TIP3     5918     TIP3     OH2      OT      -0.834000       15.9994           0
     26329 TIP3     5918     TIP3     H1       HT       0.417000       1.00800           0
     26330 TIP3     5918     TIP3     H2       HT       0.417000       1.00800           0
     26331 TIP3     5919     TIP3     OH2      OT      -0.834000       15.9994           0
     26332 TIP3     5919     TIP3     H1       HT       0.417000       1.00800           0
     26333 TIP3     5919     TIP3     H2       HT       0.417000       1.00800           0
     26334 TIP3     5920     TIP3     OH2      OT      -0.834000       15.9994           0
     26335 TIP3     5920     TIP3     H1       HT       0.417000       1.00800           0
     26336 TIP3     5920     TIP3     H2       HT       0.417000       1.00800           0
     26337 TIP3     5921     TIP3     OH2      OT      -0.834000       15.9994           0
     26338 TIP3     5921     TIP3     H1       HT       0.417000       1.00800           0
     26339 TIP3     5921     TIP3     H2       HT       0.417000       1.00800           0
     26340 TIP3     5922     TIP3     OH2      OT      -0.834000       15.9994           0
     26341 TIP3     5922     TIP3     H1       HT       0.417000       1.00800           0
     26342 TIP3     5922     TIP3     H2       HT       0.417000       1.00800           0
     26343 TIP3     5923     TIP3     OH2      OT      -0.834000       15.9994           0
     26344 TIP3     5923     TIP3     H1       HT       0.417000       1.00800           0
     26345 TIP3     5923     TIP3     H2       HT       0.417000       1.00800           0
     26346 TIP3     5924     TIP3     OH2      OT      -0.834000       15.9994           0
     26347 TIP3     5924     TIP3     H1       HT       0.417000       1.00800           0
     26348 TIP3     5924     TIP3     H2       HT       0.417000       1.00800           0
     26349 TIP3     5925     TIP3     OH2      OT      -0.834000       15.9994           0
     26350 TIP3     5925     TIP3     H1       HT       0.417000       1.00800           0
     26351 TIP3     5925     TIP3     H2       HT       0.417000       1.00800           0
     26352 TIP3     5926     TIP3     OH2      OT      -0.834000       15.9994           0
     26353 TIP3     5926     TIP3     H1       HT       0.417000       1.00800           0
     26354 TIP3     5926     TIP3     H2       HT       0.417000       1.00800           0
     26355 TIP3     5927     TIP3     OH2      OT      -0.834000       15.9994           0
     26356 TIP3     5927     TIP3     H1       HT       0.417000       1.00800           0
     26357 TIP3     5927     TIP3     H2       HT       0.417000       1.00800           0
     26358 TIP3     5928     TIP3     OH2      OT      -0.834000       15.9994           0
     26359 TIP3     5928     TIP3     H1       HT       0.417000       1.00800           0
     26360 TIP3     5928     TIP3     H2       HT       0.417000       1.00800           0
     26361 TIP3     5929     TIP3     OH2      OT      -0.834000       15.9994           0
     26362 TIP3     5929     TIP3     H1       HT       0.417000       1.00800           0
     26363 TIP3     5929     TIP3     H2       HT       0.417000       1.00800           0
     26364 TIP3     5930     TIP3     OH2      OT      -0.834000       15.9994           0
     26365 TIP3     5930     TIP3     H1       HT       0.417000       1.00800           0
     26366 TIP3     5930     TIP3     H2       HT       0.417000       1.00800           0
     26367 TIP3     5931     TIP3     OH2      OT      -0.834000       15.9994           0
     26368 TIP3     5931     TIP3     H1       HT       0.417000       1.00800           0
     26369 TIP3     5931     TIP3     H2       HT       0.417000       1.00800           0
     26370 TIP3     5932     TIP3     OH2      OT      -0.834000       15.9994           0
     26371 TIP3     5932     TIP3     H1       HT       0.417000       1.00800           0
     26372 TIP3     5932     TIP3     H2       HT       0.417000       1.00800           0
     26373 TIP3     5933     TIP3     OH2      OT      -0.834000       15.9994           0
     26374 TIP3     5933     TIP3     H1       HT       0.417000       1.00800           0
     26375 TIP3     5933     TIP3     H2       HT       0.417000       1.00800           0
     26376 TIP3     5934     TIP3     OH2      OT      -0.834000       15.9994           0
     26377 TIP3     5934     TIP3     H1       HT       0.417000       1.00800           0
     26378 TIP3     5934     TIP3     H2       HT       0.417000       1.00800           0
     26379 TIP3     5935     TIP3     OH2      OT      -0.834000       15.9994           0
     26380 TIP3     5935     TIP3     H1       HT       0.417000       1.00800           0
     26381 TIP3     5935     TIP3     H2       HT       0.417000       1.00800           0
     26382 TIP3     5936     TIP3     OH2      OT      -0.834000       15.9994           0
     26383 TIP3     5936     TIP3     H1       HT       0.417000       1.00800           0
     26384 TIP3     5936     TIP3     H2       HT       0.417000       1.00800           0
     26385 TIP3     5937     TIP3     OH2      OT      -0.834000       15.9994           0
     26386 TIP3     5937     TIP3     H1       HT       0.417000       1.00800           0
     26387 TIP3     5937     TIP3     H2       HT       0.417000       1.00800           0
     26388 TIP3     5938     TIP3     OH2      OT      -0.834000       15.9994           0
     26389 TIP3     5938     TIP3     H1       HT       0.417000       1.00800           0
     26390 TIP3     5938     TIP3     H2       HT       0.417000       1.00800           0
     26391 TIP3     5939     TIP3     OH2      OT      -0.834000       15.9994           0
     26392 TIP3     5939     TIP3     H1       HT       0.417000       1.00800           0
     26393 TIP3     5939     TIP3     H2       HT       0.417000       1.00800           0
     26394 TIP3     5940     TIP3     OH2      OT      -0.834000       15.9994           0
     26395 TIP3     5940     TIP3     H1       HT       0.417000       1.00800           0
     26396 TIP3     5940     TIP3     H2       HT       0.417000       1.00800           0
     26397 TIP3     5941     TIP3     OH2      OT      -0.834000       15.9994           0
     26398 TIP3     5941     TIP3     H1       HT       0.417000       1.00800           0
     26399 TIP3     5941     TIP3     H2       HT       0.417000       1.00800           0
     26400 TIP3     5942     TIP3     OH2      OT      -0.834000       15.9994           0
     26401 TIP3     5942     TIP3     H1       HT       0.417000       1.00800           0
     26402 TIP3     5942     TIP3     H2       HT       0.417000       1.00800           0
     26403 TIP3     5943     TIP3     OH2      OT      -0.834000       15.9994           0
     26404 TIP3     5943     TIP3     H1       HT       0.417000       1.00800           0
     26405 TIP3     5943     TIP3     H2       HT       0.417000       1.00800           0
     26406 TIP3     5944     TIP3     OH2      OT      -0.834000       15.9994           0
     26407 TIP3     5944     TIP3     H1       HT       0.417000       1.00800           0
     26408 TIP3     5944     TIP3     H2       HT       0.417000       1.00800           0
     26409 TIP3     5945     TIP3     OH2      OT      -0.834000       15.9994           0
     26410 TIP3     5945     TIP3     H1       HT       0.417000       1.00800           0
     26411 TIP3     5945     TIP3     H2       HT       0.417000       1.00800           0
     26412 TIP3     5946     TIP3     OH2      OT      -0.834000       15.9994           0
     26413 TIP3     5946     TIP3     H1       HT       0.417000       1.00800           0
     26414 TIP3     5946     TIP3     H2       HT       0.417000       1.00800           0
     26415 TIP3     5947     TIP3     OH2      OT      -0.834000       15.9994           0
     26416 TIP3     5947     TIP3     H1       HT       0.417000       1.00800           0
     26417 TIP3     5947     TIP3     H2       HT       0.417000       1.00800           0
     26418 TIP3     5948     TIP3     OH2      OT      -0.834000       15.9994           0
     26419 TIP3     5948     TIP3     H1       HT       0.417000       1.00800           0
     26420 TIP3     5948     TIP3     H2       HT       0.417000       1.00800           0
     26421 TIP3     5949     TIP3     OH2      OT      -0.834000       15.9994           0
     26422 TIP3     5949     TIP3     H1       HT       0.417000       1.00800           0
     26423 TIP3     5949     TIP3     H2       HT       0.417000       1.00800           0
     26424 TIP3     5950     TIP3     OH2      OT      -0.834000       15.9994           0
     26425 TIP3     5950     TIP3     H1       HT       0.417000       1.00800           0
     26426 TIP3     5950     TIP3     H2       HT       0.417000       1.00800           0
     26427 TIP3     5951     TIP3     OH2      OT      -0.834000       15.9994           0
     26428 TIP3     5951     TIP3     H1       HT       0.417000       1.00800           0
     26429 TIP3     5951     TIP3     H2       HT       0.417000       1.00800           0
     26430 TIP3     5952     TIP3     OH2      OT      -0.834000       15.9994           0
     26431 TIP3     5952     TIP3     H1       HT       0.417000       1.00800           0
     26432 TIP3     5952     TIP3     H2       HT       0.417000       1.00800           0
     26433 TIP3     5953     TIP3     OH2      OT      -0.834000       15.9994           0
     26434 TIP3     5953     TIP3     H1       HT       0.417000       1.00800           0
     26435 TIP3     5953     TIP3     H2       HT       0.417000       1.00800           0
     26436 TIP3     5954     TIP3     OH2      OT      -0.834000       15.9994           0
     26437 TIP3     5954     TIP3     H1       HT       0.417000       1.00800           0
     26438 TIP3     5954     TIP3     H2       HT       0.417000       1.00800           0
     26439 TIP3     5955     TIP3     OH2      OT      -0.834000       15.9994           0
     26440 TIP3     5955     TIP3     H1       HT       0.417000       1.00800           0
     26441 TIP3     5955     TIP3     H2       HT       0.417000       1.00800           0
     26442 TIP3     5956     TIP3     OH2      OT      -0.834000       15.9994           0
     26443 TIP3     5956     TIP3     H1       HT       0.417000       1.00800           0
     26444 TIP3     5956     TIP3     H2       HT       0.417000       1.00800           0
     26445 TIP3     5957     TIP3     OH2      OT      -0.834000       15.9994           0
     26446 TIP3     5957     TIP3     H1       HT       0.417000       1.00800           0
     26447 TIP3     5957     TIP3     H2       HT       0.417000       1.00800           0
     26448 TIP3     5958     TIP3     OH2      OT      -0.834000       15.9994           0
     26449 TIP3     5958     TIP3     H1       HT       0.417000       1.00800           0
     26450 TIP3     5958     TIP3     H2       HT       0.417000       1.00800           0
     26451 TIP3     5959     TIP3     OH2      OT      -0.834000       15.9994           0
     26452 TIP3     5959     TIP3     H1       HT       0.417000       1.00800           0
     26453 TIP3     5959     TIP3     H2       HT       0.417000       1.00800           0
     26454 TIP3     5960     TIP3     OH2      OT      -0.834000       15.9994           0
     26455 TIP3     5960     TIP3     H1       HT       0.417000       1.00800           0
     26456 TIP3     5960     TIP3     H2       HT       0.417000       1.00800           0
     26457 TIP3     5961     TIP3     OH2      OT      -0.834000       15.9994           0
     26458 TIP3     5961     TIP3     H1       HT       0.417000       1.00800           0
     26459 TIP3     5961     TIP3     H2       HT       0.417000       1.00800           0
     26460 TIP3     5962     TIP3     OH2      OT      -0.834000       15.9994           0
     26461 TIP3     5962     TIP3     H1       HT       0.417000       1.00800           0
     26462 TIP3     5962     TIP3     H2       HT       0.417000       1.00800           0
     26463 TIP3     5963     TIP3     OH2      OT      -0.834000       15.9994           0
     26464 TIP3     5963     TIP3     H1       HT       0.417000       1.00800           0
     26465 TIP3     5963     TIP3     H2       HT       0.417000       1.00800           0
     26466 TIP3     5964     TIP3     OH2      OT      -0.834000       15.9994           0
     26467 TIP3     5964     TIP3     H1       HT       0.417000       1.00800           0
     26468 TIP3     5964     TIP3     H2       HT       0.417000       1.00800           0
     26469 TIP3     5965     TIP3     OH2      OT      -0.834000       15.9994           0
     26470 TIP3     5965     TIP3     H1       HT       0.417000       1.00800           0
     26471 TIP3     5965     TIP3     H2       HT       0.417000       1.00800           0
     26472 TIP3     5966     TIP3     OH2      OT      -0.834000       15.9994           0
     26473 TIP3     5966     TIP3     H1       HT       0.417000       1.00800           0
     26474 TIP3     5966     TIP3     H2       HT       0.417000       1.00800           0
     26475 TIP3     5967     TIP3     OH2      OT      -0.834000       15.9994           0
     26476 TIP3     5967     TIP3     H1       HT       0.417000       1.00800           0
     26477 TIP3     5967     TIP3     H2       HT       0.417000       1.00800           0
     26478 TIP3     5968     TIP3     OH2      OT      -0.834000       15.9994           0
     26479 TIP3     5968     TIP3     H1       HT       0.417000       1.00800           0
     26480 TIP3     5968     TIP3     H2       HT       0.417000       1.00800           0
     26481 TIP3     5969     TIP3     OH2      OT      -0.834000       15.9994           0
     26482 TIP3     5969     TIP3     H1       HT       0.417000       1.00800           0
     26483 TIP3     5969     TIP3     H2       HT       0.417000       1.00800           0
     26484 TIP3     5970     TIP3     OH2      OT      -0.834000       15.9994           0
     26485 TIP3     5970     TIP3     H1       HT       0.417000       1.00800           0
     26486 TIP3     5970     TIP3     H2       HT       0.417000       1.00800           0
     26487 TIP3     5971     TIP3     OH2      OT      -0.834000       15.9994           0
     26488 TIP3     5971     TIP3     H1       HT       0.417000       1.00800           0
     26489 TIP3     5971     TIP3     H2       HT       0.417000       1.00800           0
     26490 TIP3     5972     TIP3     OH2      OT      -0.834000       15.9994           0
     26491 TIP3     5972     TIP3     H1       HT       0.417000       1.00800           0
     26492 TIP3     5972     TIP3     H2       HT       0.417000       1.00800           0
     26493 TIP3     5973     TIP3     OH2      OT      -0.834000       15.9994           0
     26494 TIP3     5973     TIP3     H1       HT       0.417000       1.00800           0
     26495 TIP3     5973     TIP3     H2       HT       0.417000       1.00800           0
     26496 TIP3     5974     TIP3     OH2      OT      -0.834000       15.9994           0
     26497 TIP3     5974     TIP3     H1       HT       0.417000       1.00800           0
     26498 TIP3     5974     TIP3     H2       HT       0.417000       1.00800           0
     26499 TIP3     5975     TIP3     OH2      OT      -0.834000       15.9994           0
     26500 TIP3     5975     TIP3     H1       HT       0.417000       1.00800           0
     26501 TIP3     5975     TIP3     H2       HT       0.417000       1.00800           0
     26502 TIP3     5976     TIP3     OH2      OT      -0.834000       15.9994           0
     26503 TIP3     5976     TIP3     H1       HT       0.417000       1.00800           0
     26504 TIP3     5976     TIP3     H2       HT       0.417000       1.00800           0
     26505 TIP3     5977     TIP3     OH2      OT      -0.834000       15.9994           0
     26506 TIP3     5977     TIP3     H1       HT       0.417000       1.00800           0
     26507 TIP3     5977     TIP3     H2       HT       0.417000       1.00800           0
     26508 TIP3     5978     TIP3     OH2      OT      -0.834000       15.9994           0
     26509 TIP3     5978     TIP3     H1       HT       0.417000       1.00800           0
     26510 TIP3     5978     TIP3     H2       HT       0.417000       1.00800           0
     26511 TIP3     5979     TIP3     OH2      OT      -0.834000       15.9994           0
     26512 TIP3     5979     TIP3     H1       HT       0.417000       1.00800           0
     26513 TIP3     5979     TIP3     H2       HT       0.417000       1.00800           0
     26514 TIP3     5980     TIP3     OH2      OT      -0.834000       15.9994           0
     26515 TIP3     5980     TIP3     H1       HT       0.417000       1.00800           0
     26516 TIP3     5980     TIP3     H2       HT       0.417000       1.00800           0
     26517 TIP3     5981     TIP3     OH2      OT      -0.834000       15.9994           0
     26518 TIP3     5981     TIP3     H1       HT       0.417000       1.00800           0
     26519 TIP3     5981     TIP3     H2       HT       0.417000       1.00800           0
     26520 TIP3     5982     TIP3     OH2      OT      -0.834000       15.9994           0
     26521 TIP3     5982     TIP3     H1       HT       0.417000       1.00800           0
     26522 TIP3     5982     TIP3     H2       HT       0.417000       1.00800           0
     26523 TIP3     5983     TIP3     OH2      OT      -0.834000       15.9994           0
     26524 TIP3     5983     TIP3     H1       HT       0.417000       1.00800           0
     26525 TIP3     5983     TIP3     H2       HT       0.417000       1.00800           0
     26526 TIP3     5984     TIP3     OH2      OT      -0.834000       15.9994           0
     26527 TIP3     5984     TIP3     H1       HT       0.417000       1.00800           0
     26528 TIP3     5984     TIP3     H2       HT       0.417000       1.00800           0
     26529 TIP3     5985     TIP3     OH2      OT      -0.834000       15.9994           0
     26530 TIP3     5985     TIP3     H1       HT       0.417000       1.00800           0
     26531 TIP3     5985     TIP3     H2       HT       0.417000       1.00800           0
     26532 TIP3     5986     TIP3     OH2      OT      -0.834000       15.9994           0
     26533 TIP3     5986     TIP3     H1       HT       0.417000       1.00800           0
     26534 TIP3     5986     TIP3     H2       HT       0.417000       1.00800           0
     26535 TIP3     5987     TIP3     OH2      OT      -0.834000       15.9994           0
     26536 TIP3     5987     TIP3     H1       HT       0.417000       1.00800           0
     26537 TIP3     5987     TIP3     H2       HT       0.417000       1.00800           0
     26538 TIP3     5988     TIP3     OH2      OT      -0.834000       15.9994           0
     26539 TIP3     5988     TIP3     H1       HT       0.417000       1.00800           0
     26540 TIP3     5988     TIP3     H2       HT       0.417000       1.00800           0
     26541 TIP3     5989     TIP3     OH2      OT      -0.834000       15.9994           0
     26542 TIP3     5989     TIP3     H1       HT       0.417000       1.00800           0
     26543 TIP3     5989     TIP3     H2       HT       0.417000       1.00800           0
     26544 TIP3     5990     TIP3     OH2      OT      -0.834000       15.9994           0
     26545 TIP3     5990     TIP3     H1       HT       0.417000       1.00800           0
     26546 TIP3     5990     TIP3     H2       HT       0.417000       1.00800           0
     26547 TIP3     5991     TIP3     OH2      OT      -0.834000       15.9994           0
     26548 TIP3     5991     TIP3     H1       HT       0.417000       1.00800           0
     26549 TIP3     5991     TIP3     H2       HT       0.417000       1.00800           0
     26550 TIP3     5992     TIP3     OH2      OT      -0.834000       15.9994           0
     26551 TIP3     5992     TIP3     H1       HT       0.417000       1.00800           0
     26552 TIP3     5992     TIP3     H2       HT       0.417000       1.00800           0
     26553 TIP3     5993     TIP3     OH2      OT      -0.834000       15.9994           0
     26554 TIP3     5993     TIP3     H1       HT       0.417000       1.00800           0
     26555 TIP3     5993     TIP3     H2       HT       0.417000       1.00800           0
     26556 TIP3     5994     TIP3     OH2      OT      -0.834000       15.9994           0
     26557 TIP3     5994     TIP3     H1       HT       0.417000       1.00800           0
     26558 TIP3     5994     TIP3     H2       HT       0.417000       1.00800           0
     26559 TIP3     5995     TIP3     OH2      OT      -0.834000       15.9994           0
     26560 TIP3     5995     TIP3     H1       HT       0.417000       1.00800           0
     26561 TIP3     5995     TIP3     H2       HT       0.417000       1.00800           0
     26562 TIP3     5996     TIP3     OH2      OT      -0.834000       15.9994           0
     26563 TIP3     5996     TIP3     H1       HT       0.417000       1.00800           0
     26564 TIP3     5996     TIP3     H2       HT       0.417000       1.00800           0
     26565 TIP3     5997     TIP3     OH2      OT      -0.834000       15.9994           0
     26566 TIP3     5997     TIP3     H1       HT       0.417000       1.00800           0
     26567 TIP3     5997     TIP3     H2       HT       0.417000       1.00800           0
     26568 TIP3     5998     TIP3     OH2      OT      -0.834000       15.9994           0
     26569 TIP3     5998     TIP3     H1       HT       0.417000       1.00800           0
     26570 TIP3     5998     TIP3     H2       HT       0.417000       1.00800           0
     26571 TIP3     5999     TIP3     OH2      OT      -0.834000       15.9994           0
     26572 TIP3     5999     TIP3     H1       HT       0.417000       1.00800           0
     26573 TIP3     5999     TIP3     H2       HT       0.417000       1.00800           0
     26574 TIP3     6000     TIP3     OH2      OT      -0.834000       15.9994           0
     26575 TIP3     6000     TIP3     H1       HT       0.417000       1.00800           0
     26576 TIP3     6000     TIP3     H2       HT       0.417000       1.00800           0
     26577 TIP3     6001     TIP3     OH2      OT      -0.834000       15.9994           0
     26578 TIP3     6001     TIP3     H1       HT       0.417000       1.00800           0
     26579 TIP3     6001     TIP3     H2       HT       0.417000       1.00800           0
     26580 TIP3     6002     TIP3     OH2      OT      -0.834000       15.9994           0
     26581 TIP3     6002     TIP3     H1       HT       0.417000       1.00800           0
     26582 TIP3     6002     TIP3     H2       HT       0.417000       1.00800           0
     26583 TIP3     6003     TIP3     OH2      OT      -0.834000       15.9994           0
     26584 TIP3     6003     TIP3     H1       HT       0.417000       1.00800           0
     26585 TIP3     6003     TIP3     H2       HT       0.417000       1.00800           0
     26586 TIP3     6004     TIP3     OH2      OT      -0.834000       15.9994           0
     26587 TIP3     6004     TIP3     H1       HT       0.417000       1.00800           0
     26588 TIP3     6004     TIP3     H2       HT       0.417000       1.00800           0
     26589 TIP3     6005     TIP3     OH2      OT      -0.834000       15.9994           0
     26590 TIP3     6005     TIP3     H1       HT       0.417000       1.00800           0
     26591 TIP3     6005     TIP3     H2       HT       0.417000       1.00800           0
     26592 TIP3     6006     TIP3     OH2      OT      -0.834000       15.9994           0
     26593 TIP3     6006     TIP3     H1       HT       0.417000       1.00800           0
     26594 TIP3     6006     TIP3     H2       HT       0.417000       1.00800           0
     26595 TIP3     6007     TIP3     OH2      OT      -0.834000       15.9994           0
     26596 TIP3     6007     TIP3     H1       HT       0.417000       1.00800           0
     26597 TIP3     6007     TIP3     H2       HT       0.417000       1.00800           0
     26598 TIP3     6008     TIP3     OH2      OT      -0.834000       15.9994           0
     26599 TIP3     6008     TIP3     H1       HT       0.417000       1.00800           0
     26600 TIP3     6008     TIP3     H2       HT       0.417000       1.00800           0
     26601 TIP3     6009     TIP3     OH2      OT      -0.834000       15.9994           0
     26602 TIP3     6009     TIP3     H1       HT       0.417000       1.00800           0
     26603 TIP3     6009     TIP3     H2       HT       0.417000       1.00800           0
     26604 TIP3     6010     TIP3     OH2      OT      -0.834000       15.9994           0
     26605 TIP3     6010     TIP3     H1       HT       0.417000       1.00800           0
     26606 TIP3     6010     TIP3     H2       HT       0.417000       1.00800           0
     26607 TIP3     6011     TIP3     OH2      OT      -0.834000       15.9994           0
     26608 TIP3     6011     TIP3     H1       HT       0.417000       1.00800           0
     26609 TIP3     6011     TIP3     H2       HT       0.417000       1.00800           0
     26610 TIP3     6012     TIP3     OH2      OT      -0.834000       15.9994           0
     26611 TIP3     6012     TIP3     H1       HT       0.417000       1.00800           0
     26612 TIP3     6012     TIP3     H2       HT       0.417000       1.00800           0
     26613 TIP3     6013     TIP3     OH2      OT      -0.834000       15.9994           0
     26614 TIP3     6013     TIP3     H1       HT       0.417000       1.00800           0
     26615 TIP3     6013     TIP3     H2       HT       0.417000       1.00800           0
     26616 TIP3     6014     TIP3     OH2      OT      -0.834000       15.9994           0
     26617 TIP3     6014     TIP3     H1       HT       0.417000       1.00800           0
     26618 TIP3     6014     TIP3     H2       HT       0.417000       1.00800           0
     26619 TIP3     6015     TIP3     OH2      OT      -0.834000       15.9994           0
     26620 TIP3     6015     TIP3     H1       HT       0.417000       1.00800           0
     26621 TIP3     6015     TIP3     H2       HT       0.417000       1.00800           0
     26622 TIP3     6016     TIP3     OH2      OT      -0.834000       15.9994           0
     26623 TIP3     6016     TIP3     H1       HT       0.417000       1.00800           0
     26624 TIP3     6016     TIP3     H2       HT       0.417000       1.00800           0
     26625 TIP3     6017     TIP3     OH2      OT      -0.834000       15.9994           0
     26626 TIP3     6017     TIP3     H1       HT       0.417000       1.00800           0
     26627 TIP3     6017     TIP3     H2       HT       0.417000       1.00800           0
     26628 TIP3     6018     TIP3     OH2      OT      -0.834000       15.9994           0
     26629 TIP3     6018     TIP3     H1       HT       0.417000       1.00800           0
     26630 TIP3     6018     TIP3     H2       HT       0.417000       1.00800           0
     26631 TIP3     6019     TIP3     OH2      OT      -0.834000       15.9994           0
     26632 TIP3     6019     TIP3     H1       HT       0.417000       1.00800           0
     26633 TIP3     6019     TIP3     H2       HT       0.417000       1.00800           0
     26634 TIP3     6020     TIP3     OH2      OT      -0.834000       15.9994           0
     26635 TIP3     6020     TIP3     H1       HT       0.417000       1.00800           0
     26636 TIP3     6020     TIP3     H2       HT       0.417000       1.00800           0
     26637 TIP3     6021     TIP3     OH2      OT      -0.834000       15.9994           0
     26638 TIP3     6021     TIP3     H1       HT       0.417000       1.00800           0
     26639 TIP3     6021     TIP3     H2       HT       0.417000       1.00800           0
     26640 TIP3     6022     TIP3     OH2      OT      -0.834000       15.9994           0
     26641 TIP3     6022     TIP3     H1       HT       0.417000       1.00800           0
     26642 TIP3     6022     TIP3     H2       HT       0.417000       1.00800           0
     26643 TIP3     6023     TIP3     OH2      OT      -0.834000       15.9994           0
     26644 TIP3     6023     TIP3     H1       HT       0.417000       1.00800           0
     26645 TIP3     6023     TIP3     H2       HT       0.417000       1.00800           0
     26646 TIP3     6024     TIP3     OH2      OT      -0.834000       15.9994           0
     26647 TIP3     6024     TIP3     H1       HT       0.417000       1.00800           0
     26648 TIP3     6024     TIP3     H2       HT       0.417000       1.00800           0
     26649 TIP3     6025     TIP3     OH2      OT      -0.834000       15.9994           0
     26650 TIP3     6025     TIP3     H1       HT       0.417000       1.00800           0
     26651 TIP3     6025     TIP3     H2       HT       0.417000       1.00800           0
     26652 TIP3     6026     TIP3     OH2      OT      -0.834000       15.9994           0
     26653 TIP3     6026     TIP3     H1       HT       0.417000       1.00800           0
     26654 TIP3     6026     TIP3     H2       HT       0.417000       1.00800           0
     26655 TIP3     6027     TIP3     OH2      OT      -0.834000       15.9994           0
     26656 TIP3     6027     TIP3     H1       HT       0.417000       1.00800           0
     26657 TIP3     6027     TIP3     H2       HT       0.417000       1.00800           0
     26658 TIP3     6028     TIP3     OH2      OT      -0.834000       15.9994           0
     26659 TIP3     6028     TIP3     H1       HT       0.417000       1.00800           0
     26660 TIP3     6028     TIP3     H2       HT       0.417000       1.00800           0
     26661 TIP3     6029     TIP3     OH2      OT      -0.834000       15.9994           0
     26662 TIP3     6029     TIP3     H1       HT       0.417000       1.00800           0
     26663 TIP3     6029     TIP3     H2       HT       0.417000       1.00800           0
     26664 TIP3     6030     TIP3     OH2      OT      -0.834000       15.9994           0
     26665 TIP3     6030     TIP3     H1       HT       0.417000       1.00800           0
     26666 TIP3     6030     TIP3     H2       HT       0.417000       1.00800           0
     26667 TIP3     6031     TIP3     OH2      OT      -0.834000       15.9994           0
     26668 TIP3     6031     TIP3     H1       HT       0.417000       1.00800           0
     26669 TIP3     6031     TIP3     H2       HT       0.417000       1.00800           0
     26670 TIP3     6032     TIP3     OH2      OT      -0.834000       15.9994           0
     26671 TIP3     6032     TIP3     H1       HT       0.417000       1.00800           0
     26672 TIP3     6032     TIP3     H2       HT       0.417000       1.00800           0
     26673 TIP3     6033     TIP3     OH2      OT      -0.834000       15.9994           0
     26674 TIP3     6033     TIP3     H1       HT       0.417000       1.00800           0
     26675 TIP3     6033     TIP3     H2       HT       0.417000       1.00800           0
     26676 TIP3     6034     TIP3     OH2      OT      -0.834000       15.9994           0
     26677 TIP3     6034     TIP3     H1       HT       0.417000       1.00800           0
     26678 TIP3     6034     TIP3     H2       HT       0.417000       1.00800           0
     26679 TIP3     6035     TIP3     OH2      OT      -0.834000       15.9994           0
     26680 TIP3     6035     TIP3     H1       HT       0.417000       1.00800           0
     26681 TIP3     6035     TIP3     H2       HT       0.417000       1.00800           0
     26682 TIP3     6036     TIP3     OH2      OT      -0.834000       15.9994           0
     26683 TIP3     6036     TIP3     H1       HT       0.417000       1.00800           0
     26684 TIP3     6036     TIP3     H2       HT       0.417000       1.00800           0
     26685 TIP3     6037     TIP3     OH2      OT      -0.834000       15.9994           0
     26686 TIP3     6037     TIP3     H1       HT       0.417000       1.00800           0
     26687 TIP3     6037     TIP3     H2       HT       0.417000       1.00800           0
     26688 TIP3     6038     TIP3     OH2      OT      -0.834000       15.9994           0
     26689 TIP3     6038     TIP3     H1       HT       0.417000       1.00800           0
     26690 TIP3     6038     TIP3     H2       HT       0.417000       1.00800           0
     26691 TIP3     6039     TIP3     OH2      OT      -0.834000       15.9994           0
     26692 TIP3     6039     TIP3     H1       HT       0.417000       1.00800           0
     26693 TIP3     6039     TIP3     H2       HT       0.417000       1.00800           0
     26694 TIP3     6040     TIP3     OH2      OT      -0.834000       15.9994           0
     26695 TIP3     6040     TIP3     H1       HT       0.417000       1.00800           0
     26696 TIP3     6040     TIP3     H2       HT       0.417000       1.00800           0
     26697 TIP3     6041     TIP3     OH2      OT      -0.834000       15.9994           0
     26698 TIP3     6041     TIP3     H1       HT       0.417000       1.00800           0
     26699 TIP3     6041     TIP3     H2       HT       0.417000       1.00800           0
     26700 TIP3     6042     TIP3     OH2      OT      -0.834000       15.9994           0
     26701 TIP3     6042     TIP3     H1       HT       0.417000       1.00800           0
     26702 TIP3     6042     TIP3     H2       HT       0.417000       1.00800           0
     26703 TIP3     6043     TIP3     OH2      OT      -0.834000       15.9994           0
     26704 TIP3     6043     TIP3     H1       HT       0.417000       1.00800           0
     26705 TIP3     6043     TIP3     H2       HT       0.417000       1.00800           0
     26706 TIP3     6044     TIP3     OH2      OT      -0.834000       15.9994           0
     26707 TIP3     6044     TIP3     H1       HT       0.417000       1.00800           0
     26708 TIP3     6044     TIP3     H2       HT       0.417000       1.00800           0
     26709 TIP3     6045     TIP3     OH2      OT      -0.834000       15.9994           0
     26710 TIP3     6045     TIP3     H1       HT       0.417000       1.00800           0
     26711 TIP3     6045     TIP3     H2       HT       0.417000       1.00800           0
     26712 TIP3     6046     TIP3     OH2      OT      -0.834000       15.9994           0
     26713 TIP3     6046     TIP3     H1       HT       0.417000       1.00800           0
     26714 TIP3     6046     TIP3     H2       HT       0.417000       1.00800           0
     26715 TIP3     6047     TIP3     OH2      OT      -0.834000       15.9994           0
     26716 TIP3     6047     TIP3     H1       HT       0.417000       1.00800           0
     26717 TIP3     6047     TIP3     H2       HT       0.417000       1.00800           0
     26718 TIP3     6048     TIP3     OH2      OT      -0.834000       15.9994           0
     26719 TIP3     6048     TIP3     H1       HT       0.417000       1.00800           0
     26720 TIP3     6048     TIP3     H2       HT       0.417000       1.00800           0
     26721 TIP3     6049     TIP3     OH2      OT      -0.834000       15.9994           0
     26722 TIP3     6049     TIP3     H1       HT       0.417000       1.00800           0
     26723 TIP3     6049     TIP3     H2       HT       0.417000       1.00800           0
     26724 TIP3     6050     TIP3     OH2      OT      -0.834000       15.9994           0
     26725 TIP3     6050     TIP3     H1       HT       0.417000       1.00800           0
     26726 TIP3     6050     TIP3     H2       HT       0.417000       1.00800           0
     26727 TIP3     6051     TIP3     OH2      OT      -0.834000       15.9994           0
     26728 TIP3     6051     TIP3     H1       HT       0.417000       1.00800           0
     26729 TIP3     6051     TIP3     H2       HT       0.417000       1.00800           0
     26730 TIP3     6052     TIP3     OH2      OT      -0.834000       15.9994           0
     26731 TIP3     6052     TIP3     H1       HT       0.417000       1.00800           0
     26732 TIP3     6052     TIP3     H2       HT       0.417000       1.00800           0
     26733 TIP3     6053     TIP3     OH2      OT      -0.834000       15.9994           0
     26734 TIP3     6053     TIP3     H1       HT       0.417000       1.00800           0
     26735 TIP3     6053     TIP3     H2       HT       0.417000       1.00800           0
     26736 TIP3     6054     TIP3     OH2      OT      -0.834000       15.9994           0
     26737 TIP3     6054     TIP3     H1       HT       0.417000       1.00800           0
     26738 TIP3     6054     TIP3     H2       HT       0.417000       1.00800           0
     26739 TIP3     6055     TIP3     OH2      OT      -0.834000       15.9994           0
     26740 TIP3     6055     TIP3     H1       HT       0.417000       1.00800           0
     26741 TIP3     6055     TIP3     H2       HT       0.417000       1.00800           0
     26742 TIP3     6056     TIP3     OH2      OT      -0.834000       15.9994           0
     26743 TIP3     6056     TIP3     H1       HT       0.417000       1.00800           0
     26744 TIP3     6056     TIP3     H2       HT       0.417000       1.00800           0
     26745 TIP3     6057     TIP3     OH2      OT      -0.834000       15.9994           0
     26746 TIP3     6057     TIP3     H1       HT       0.417000       1.00800           0
     26747 TIP3     6057     TIP3     H2       HT       0.417000       1.00800           0
     26748 TIP3     6058     TIP3     OH2      OT      -0.834000       15.9994           0
     26749 TIP3     6058     TIP3     H1       HT       0.417000       1.00800           0
     26750 TIP3     6058     TIP3     H2       HT       0.417000       1.00800           0
     26751 TIP3     6059     TIP3     OH2      OT      -0.834000       15.9994           0
     26752 TIP3     6059     TIP3     H1       HT       0.417000       1.00800           0
     26753 TIP3     6059     TIP3     H2       HT       0.417000       1.00800           0
     26754 TIP3     6060     TIP3     OH2      OT      -0.834000       15.9994           0
     26755 TIP3     6060     TIP3     H1       HT       0.417000       1.00800           0
     26756 TIP3     6060     TIP3     H2       HT       0.417000       1.00800           0
     26757 TIP3     6061     TIP3     OH2      OT      -0.834000       15.9994           0
     26758 TIP3     6061     TIP3     H1       HT       0.417000       1.00800           0
     26759 TIP3     6061     TIP3     H2       HT       0.417000       1.00800           0
     26760 TIP3     6062     TIP3     OH2      OT      -0.834000       15.9994           0
     26761 TIP3     6062     TIP3     H1       HT       0.417000       1.00800           0
     26762 TIP3     6062     TIP3     H2       HT       0.417000       1.00800           0
     26763 TIP3     6063     TIP3     OH2      OT      -0.834000       15.9994           0
     26764 TIP3     6063     TIP3     H1       HT       0.417000       1.00800           0
     26765 TIP3     6063     TIP3     H2       HT       0.417000       1.00800           0
     26766 TIP3     6064     TIP3     OH2      OT      -0.834000       15.9994           0
     26767 TIP3     6064     TIP3     H1       HT       0.417000       1.00800           0
     26768 TIP3     6064     TIP3     H2       HT       0.417000       1.00800           0
     26769 TIP3     6065     TIP3     OH2      OT      -0.834000       15.9994           0
     26770 TIP3     6065     TIP3     H1       HT       0.417000       1.00800           0
     26771 TIP3     6065     TIP3     H2       HT       0.417000       1.00800           0
     26772 TIP3     6066     TIP3     OH2      OT      -0.834000       15.9994           0
     26773 TIP3     6066     TIP3     H1       HT       0.417000       1.00800           0
     26774 TIP3     6066     TIP3     H2       HT       0.417000       1.00800           0
     26775 TIP3     6067     TIP3     OH2      OT      -0.834000       15.9994           0
     26776 TIP3     6067     TIP3     H1       HT       0.417000       1.00800           0
     26777 TIP3     6067     TIP3     H2       HT       0.417000       1.00800           0
     26778 TIP3     6068     TIP3     OH2      OT      -0.834000       15.9994           0
     26779 TIP3     6068     TIP3     H1       HT       0.417000       1.00800           0
     26780 TIP3     6068     TIP3     H2       HT       0.417000       1.00800           0
     26781 TIP3     6069     TIP3     OH2      OT      -0.834000       15.9994           0
     26782 TIP3     6069     TIP3     H1       HT       0.417000       1.00800           0
     26783 TIP3     6069     TIP3     H2       HT       0.417000       1.00800           0
     26784 TIP3     6070     TIP3     OH2      OT      -0.834000       15.9994           0
     26785 TIP3     6070     TIP3     H1       HT       0.417000       1.00800           0
     26786 TIP3     6070     TIP3     H2       HT       0.417000       1.00800           0
     26787 TIP3     6071     TIP3     OH2      OT      -0.834000       15.9994           0
     26788 TIP3     6071     TIP3     H1       HT       0.417000       1.00800           0
     26789 TIP3     6071     TIP3     H2       HT       0.417000       1.00800           0
     26790 TIP3     6072     TIP3     OH2      OT      -0.834000       15.9994           0
     26791 TIP3     6072     TIP3     H1       HT       0.417000       1.00800           0
     26792 TIP3     6072     TIP3     H2       HT       0.417000       1.00800           0
     26793 TIP3     6073     TIP3     OH2      OT      -0.834000       15.9994           0
     26794 TIP3     6073     TIP3     H1       HT       0.417000       1.00800           0
     26795 TIP3     6073     TIP3     H2       HT       0.417000       1.00800           0
     26796 TIP3     6074     TIP3     OH2      OT      -0.834000       15.9994           0
     26797 TIP3     6074     TIP3     H1       HT       0.417000       1.00800           0
     26798 TIP3     6074     TIP3     H2       HT       0.417000       1.00800           0
     26799 TIP3     6075     TIP3     OH2      OT      -0.834000       15.9994           0
     26800 TIP3     6075     TIP3     H1       HT       0.417000       1.00800           0
     26801 TIP3     6075     TIP3     H2       HT       0.417000       1.00800           0
     26802 TIP3     6076     TIP3     OH2      OT      -0.834000       15.9994           0
     26803 TIP3     6076     TIP3     H1       HT       0.417000       1.00800           0
     26804 TIP3     6076     TIP3     H2       HT       0.417000       1.00800           0
     26805 TIP3     6077     TIP3     OH2      OT      -0.834000       15.9994           0
     26806 TIP3     6077     TIP3     H1       HT       0.417000       1.00800           0
     26807 TIP3     6077     TIP3     H2       HT       0.417000       1.00800           0
     26808 TIP3     6078     TIP3     OH2      OT      -0.834000       15.9994           0
     26809 TIP3     6078     TIP3     H1       HT       0.417000       1.00800           0
     26810 TIP3     6078     TIP3     H2       HT       0.417000       1.00800           0
     26811 TIP3     6079     TIP3     OH2      OT      -0.834000       15.9994           0
     26812 TIP3     6079     TIP3     H1       HT       0.417000       1.00800           0
     26813 TIP3     6079     TIP3     H2       HT       0.417000       1.00800           0
     26814 TIP3     6080     TIP3     OH2      OT      -0.834000       15.9994           0
     26815 TIP3     6080     TIP3     H1       HT       0.417000       1.00800           0
     26816 TIP3     6080     TIP3     H2       HT       0.417000       1.00800           0
     26817 TIP3     6081     TIP3     OH2      OT      -0.834000       15.9994           0
     26818 TIP3     6081     TIP3     H1       HT       0.417000       1.00800           0
     26819 TIP3     6081     TIP3     H2       HT       0.417000       1.00800           0
     26820 TIP3     6082     TIP3     OH2      OT      -0.834000       15.9994           0
     26821 TIP3     6082     TIP3     H1       HT       0.417000       1.00800           0
     26822 TIP3     6082     TIP3     H2       HT       0.417000       1.00800           0
     26823 TIP3     6083     TIP3     OH2      OT      -0.834000       15.9994           0
     26824 TIP3     6083     TIP3     H1       HT       0.417000       1.00800           0
     26825 TIP3     6083     TIP3     H2       HT       0.417000       1.00800           0
     26826 TIP3     6084     TIP3     OH2      OT      -0.834000       15.9994           0
     26827 TIP3     6084     TIP3     H1       HT       0.417000       1.00800           0
     26828 TIP3     6084     TIP3     H2       HT       0.417000       1.00800           0
     26829 TIP3     6085     TIP3     OH2      OT      -0.834000       15.9994           0
     26830 TIP3     6085     TIP3     H1       HT       0.417000       1.00800           0
     26831 TIP3     6085     TIP3     H2       HT       0.417000       1.00800           0
     26832 TIP3     6086     TIP3     OH2      OT      -0.834000       15.9994           0
     26833 TIP3     6086     TIP3     H1       HT       0.417000       1.00800           0
     26834 TIP3     6086     TIP3     H2       HT       0.417000       1.00800           0
     26835 TIP3     6087     TIP3     OH2      OT      -0.834000       15.9994           0
     26836 TIP3     6087     TIP3     H1       HT       0.417000       1.00800           0
     26837 TIP3     6087     TIP3     H2       HT       0.417000       1.00800           0
     26838 TIP3     6088     TIP3     OH2      OT      -0.834000       15.9994           0
     26839 TIP3     6088     TIP3     H1       HT       0.417000       1.00800           0
     26840 TIP3     6088     TIP3     H2       HT       0.417000       1.00800           0
     26841 TIP3     6089     TIP3     OH2      OT      -0.834000       15.9994           0
     26842 TIP3     6089     TIP3     H1       HT       0.417000       1.00800           0
     26843 TIP3     6089     TIP3     H2       HT       0.417000       1.00800           0
     26844 TIP3     6090     TIP3     OH2      OT      -0.834000       15.9994           0
     26845 TIP3     6090     TIP3     H1       HT       0.417000       1.00800           0
     26846 TIP3     6090     TIP3     H2       HT       0.417000       1.00800           0
     26847 TIP3     6091     TIP3     OH2      OT      -0.834000       15.9994           0
     26848 TIP3     6091     TIP3     H1       HT       0.417000       1.00800           0
     26849 TIP3     6091     TIP3     H2       HT       0.417000       1.00800           0
     26850 TIP3     6092     TIP3     OH2      OT      -0.834000       15.9994           0
     26851 TIP3     6092     TIP3     H1       HT       0.417000       1.00800           0
     26852 TIP3     6092     TIP3     H2       HT       0.417000       1.00800           0
     26853 TIP3     6093     TIP3     OH2      OT      -0.834000       15.9994           0
     26854 TIP3     6093     TIP3     H1       HT       0.417000       1.00800           0
     26855 TIP3     6093     TIP3     H2       HT       0.417000       1.00800           0
     26856 TIP3     6094     TIP3     OH2      OT      -0.834000       15.9994           0
     26857 TIP3     6094     TIP3     H1       HT       0.417000       1.00800           0
     26858 TIP3     6094     TIP3     H2       HT       0.417000       1.00800           0
     26859 TIP3     6095     TIP3     OH2      OT      -0.834000       15.9994           0
     26860 TIP3     6095     TIP3     H1       HT       0.417000       1.00800           0
     26861 TIP3     6095     TIP3     H2       HT       0.417000       1.00800           0
     26862 TIP3     6096     TIP3     OH2      OT      -0.834000       15.9994           0
     26863 TIP3     6096     TIP3     H1       HT       0.417000       1.00800           0
     26864 TIP3     6096     TIP3     H2       HT       0.417000       1.00800           0
     26865 TIP3     6097     TIP3     OH2      OT      -0.834000       15.9994           0
     26866 TIP3     6097     TIP3     H1       HT       0.417000       1.00800           0
     26867 TIP3     6097     TIP3     H2       HT       0.417000       1.00800           0
     26868 TIP3     6098     TIP3     OH2      OT      -0.834000       15.9994           0
     26869 TIP3     6098     TIP3     H1       HT       0.417000       1.00800           0
     26870 TIP3     6098     TIP3     H2       HT       0.417000       1.00800           0
     26871 TIP3     6099     TIP3     OH2      OT      -0.834000       15.9994           0
     26872 TIP3     6099     TIP3     H1       HT       0.417000       1.00800           0
     26873 TIP3     6099     TIP3     H2       HT       0.417000       1.00800           0
     26874 TIP3     6100     TIP3     OH2      OT      -0.834000       15.9994           0
     26875 TIP3     6100     TIP3     H1       HT       0.417000       1.00800           0
     26876 TIP3     6100     TIP3     H2       HT       0.417000       1.00800           0
     26877 TIP3     6101     TIP3     OH2      OT      -0.834000       15.9994           0
     26878 TIP3     6101     TIP3     H1       HT       0.417000       1.00800           0
     26879 TIP3     6101     TIP3     H2       HT       0.417000       1.00800           0
     26880 TIP3     6102     TIP3     OH2      OT      -0.834000       15.9994           0
     26881 TIP3     6102     TIP3     H1       HT       0.417000       1.00800           0
     26882 TIP3     6102     TIP3     H2       HT       0.417000       1.00800           0
     26883 TIP3     6103     TIP3     OH2      OT      -0.834000       15.9994           0
     26884 TIP3     6103     TIP3     H1       HT       0.417000       1.00800           0
     26885 TIP3     6103     TIP3     H2       HT       0.417000       1.00800           0
     26886 TIP3     6104     TIP3     OH2      OT      -0.834000       15.9994           0
     26887 TIP3     6104     TIP3     H1       HT       0.417000       1.00800           0
     26888 TIP3     6104     TIP3     H2       HT       0.417000       1.00800           0
     26889 TIP3     6105     TIP3     OH2      OT      -0.834000       15.9994           0
     26890 TIP3     6105     TIP3     H1       HT       0.417000       1.00800           0
     26891 TIP3     6105     TIP3     H2       HT       0.417000       1.00800           0
     26892 TIP3     6106     TIP3     OH2      OT      -0.834000       15.9994           0
     26893 TIP3     6106     TIP3     H1       HT       0.417000       1.00800           0
     26894 TIP3     6106     TIP3     H2       HT       0.417000       1.00800           0
     26895 TIP3     6107     TIP3     OH2      OT      -0.834000       15.9994           0
     26896 TIP3     6107     TIP3     H1       HT       0.417000       1.00800           0
     26897 TIP3     6107     TIP3     H2       HT       0.417000       1.00800           0
     26898 TIP3     6108     TIP3     OH2      OT      -0.834000       15.9994           0
     26899 TIP3     6108     TIP3     H1       HT       0.417000       1.00800           0
     26900 TIP3     6108     TIP3     H2       HT       0.417000       1.00800           0
     26901 TIP3     6109     TIP3     OH2      OT      -0.834000       15.9994           0
     26902 TIP3     6109     TIP3     H1       HT       0.417000       1.00800           0
     26903 TIP3     6109     TIP3     H2       HT       0.417000       1.00800           0
     26904 TIP3     6110     TIP3     OH2      OT      -0.834000       15.9994           0
     26905 TIP3     6110     TIP3     H1       HT       0.417000       1.00800           0
     26906 TIP3     6110     TIP3     H2       HT       0.417000       1.00800           0
     26907 TIP3     6111     TIP3     OH2      OT      -0.834000       15.9994           0
     26908 TIP3     6111     TIP3     H1       HT       0.417000       1.00800           0
     26909 TIP3     6111     TIP3     H2       HT       0.417000       1.00800           0
     26910 TIP3     6112     TIP3     OH2      OT      -0.834000       15.9994           0
     26911 TIP3     6112     TIP3     H1       HT       0.417000       1.00800           0
     26912 TIP3     6112     TIP3     H2       HT       0.417000       1.00800           0
     26913 TIP3     6113     TIP3     OH2      OT      -0.834000       15.9994           0
     26914 TIP3     6113     TIP3     H1       HT       0.417000       1.00800           0
     26915 TIP3     6113     TIP3     H2       HT       0.417000       1.00800           0
     26916 TIP3     6114     TIP3     OH2      OT      -0.834000       15.9994           0
     26917 TIP3     6114     TIP3     H1       HT       0.417000       1.00800           0
     26918 TIP3     6114     TIP3     H2       HT       0.417000       1.00800           0
     26919 TIP3     6115     TIP3     OH2      OT      -0.834000       15.9994           0
     26920 TIP3     6115     TIP3     H1       HT       0.417000       1.00800           0
     26921 TIP3     6115     TIP3     H2       HT       0.417000       1.00800           0
     26922 TIP3     6116     TIP3     OH2      OT      -0.834000       15.9994           0
     26923 TIP3     6116     TIP3     H1       HT       0.417000       1.00800           0
     26924 TIP3     6116     TIP3     H2       HT       0.417000       1.00800           0
     26925 TIP3     6117     TIP3     OH2      OT      -0.834000       15.9994           0
     26926 TIP3     6117     TIP3     H1       HT       0.417000       1.00800           0
     26927 TIP3     6117     TIP3     H2       HT       0.417000       1.00800           0
     26928 TIP3     6118     TIP3     OH2      OT      -0.834000       15.9994           0
     26929 TIP3     6118     TIP3     H1       HT       0.417000       1.00800           0
     26930 TIP3     6118     TIP3     H2       HT       0.417000       1.00800           0
     26931 TIP3     6119     TIP3     OH2      OT      -0.834000       15.9994           0
     26932 TIP3     6119     TIP3     H1       HT       0.417000       1.00800           0
     26933 TIP3     6119     TIP3     H2       HT       0.417000       1.00800           0
     26934 TIP3     6120     TIP3     OH2      OT      -0.834000       15.9994           0
     26935 TIP3     6120     TIP3     H1       HT       0.417000       1.00800           0
     26936 TIP3     6120     TIP3     H2       HT       0.417000       1.00800           0
     26937 TIP3     6121     TIP3     OH2      OT      -0.834000       15.9994           0
     26938 TIP3     6121     TIP3     H1       HT       0.417000       1.00800           0
     26939 TIP3     6121     TIP3     H2       HT       0.417000       1.00800           0
     26940 TIP3     6122     TIP3     OH2      OT      -0.834000       15.9994           0
     26941 TIP3     6122     TIP3     H1       HT       0.417000       1.00800           0
     26942 TIP3     6122     TIP3     H2       HT       0.417000       1.00800           0
     26943 TIP3     6123     TIP3     OH2      OT      -0.834000       15.9994           0
     26944 TIP3     6123     TIP3     H1       HT       0.417000       1.00800           0
     26945 TIP3     6123     TIP3     H2       HT       0.417000       1.00800           0
     26946 TIP3     6124     TIP3     OH2      OT      -0.834000       15.9994           0
     26947 TIP3     6124     TIP3     H1       HT       0.417000       1.00800           0
     26948 TIP3     6124     TIP3     H2       HT       0.417000       1.00800           0
     26949 TIP3     6125     TIP3     OH2      OT      -0.834000       15.9994           0
     26950 TIP3     6125     TIP3     H1       HT       0.417000       1.00800           0
     26951 TIP3     6125     TIP3     H2       HT       0.417000       1.00800           0
     26952 TIP3     6126     TIP3     OH2      OT      -0.834000       15.9994           0
     26953 TIP3     6126     TIP3     H1       HT       0.417000       1.00800           0
     26954 TIP3     6126     TIP3     H2       HT       0.417000       1.00800           0
     26955 TIP3     6127     TIP3     OH2      OT      -0.834000       15.9994           0
     26956 TIP3     6127     TIP3     H1       HT       0.417000       1.00800           0
     26957 TIP3     6127     TIP3     H2       HT       0.417000       1.00800           0
     26958 TIP3     6128     TIP3     OH2      OT      -0.834000       15.9994           0
     26959 TIP3     6128     TIP3     H1       HT       0.417000       1.00800           0
     26960 TIP3     6128     TIP3     H2       HT       0.417000       1.00800           0
     26961 TIP3     6129     TIP3     OH2      OT      -0.834000       15.9994           0
     26962 TIP3     6129     TIP3     H1       HT       0.417000       1.00800           0
     26963 TIP3     6129     TIP3     H2       HT       0.417000       1.00800           0
     26964 TIP3     6130     TIP3     OH2      OT      -0.834000       15.9994           0
     26965 TIP3     6130     TIP3     H1       HT       0.417000       1.00800           0
     26966 TIP3     6130     TIP3     H2       HT       0.417000       1.00800           0
     26967 TIP3     6131     TIP3     OH2      OT      -0.834000       15.9994           0
     26968 TIP3     6131     TIP3     H1       HT       0.417000       1.00800           0
     26969 TIP3     6131     TIP3     H2       HT       0.417000       1.00800           0
     26970 TIP3     6132     TIP3     OH2      OT      -0.834000       15.9994           0
     26971 TIP3     6132     TIP3     H1       HT       0.417000       1.00800           0
     26972 TIP3     6132     TIP3     H2       HT       0.417000       1.00800           0
     26973 TIP3     6133     TIP3     OH2      OT      -0.834000       15.9994           0
     26974 TIP3     6133     TIP3     H1       HT       0.417000       1.00800           0
     26975 TIP3     6133     TIP3     H2       HT       0.417000       1.00800           0
     26976 TIP3     6134     TIP3     OH2      OT      -0.834000       15.9994           0
     26977 TIP3     6134     TIP3     H1       HT       0.417000       1.00800           0
     26978 TIP3     6134     TIP3     H2       HT       0.417000       1.00800           0
     26979 TIP3     6135     TIP3     OH2      OT      -0.834000       15.9994           0
     26980 TIP3     6135     TIP3     H1       HT       0.417000       1.00800           0
     26981 TIP3     6135     TIP3     H2       HT       0.417000       1.00800           0
     26982 TIP3     6136     TIP3     OH2      OT      -0.834000       15.9994           0
     26983 TIP3     6136     TIP3     H1       HT       0.417000       1.00800           0
     26984 TIP3     6136     TIP3     H2       HT       0.417000       1.00800           0
     26985 TIP3     6137     TIP3     OH2      OT      -0.834000       15.9994           0
     26986 TIP3     6137     TIP3     H1       HT       0.417000       1.00800           0
     26987 TIP3     6137     TIP3     H2       HT       0.417000       1.00800           0
     26988 TIP3     6138     TIP3     OH2      OT      -0.834000       15.9994           0
     26989 TIP3     6138     TIP3     H1       HT       0.417000       1.00800           0
     26990 TIP3     6138     TIP3     H2       HT       0.417000       1.00800           0
     26991 TIP3     6139     TIP3     OH2      OT      -0.834000       15.9994           0
     26992 TIP3     6139     TIP3     H1       HT       0.417000       1.00800           0
     26993 TIP3     6139     TIP3     H2       HT       0.417000       1.00800           0
     26994 TIP3     6140     TIP3     OH2      OT      -0.834000       15.9994           0
     26995 TIP3     6140     TIP3     H1       HT       0.417000       1.00800           0
     26996 TIP3     6140     TIP3     H2       HT       0.417000       1.00800           0
     26997 TIP3     6141     TIP3     OH2      OT      -0.834000       15.9994           0
     26998 TIP3     6141     TIP3     H1       HT       0.417000       1.00800           0
     26999 TIP3     6141     TIP3     H2       HT       0.417000       1.00800           0
     27000 TIP3     6142     TIP3     OH2      OT      -0.834000       15.9994           0
     27001 TIP3     6142     TIP3     H1       HT       0.417000       1.00800           0
     27002 TIP3     6142     TIP3     H2       HT       0.417000       1.00800           0
     27003 TIP3     6143     TIP3     OH2      OT      -0.834000       15.9994           0
     27004 TIP3     6143     TIP3     H1       HT       0.417000       1.00800           0
     27005 TIP3     6143     TIP3     H2       HT       0.417000       1.00800           0
     27006 TIP3     6144     TIP3     OH2      OT      -0.834000       15.9994           0
     27007 TIP3     6144     TIP3     H1       HT       0.417000       1.00800           0
     27008 TIP3     6144     TIP3     H2       HT       0.417000       1.00800           0
     27009 TIP3     6145     TIP3     OH2      OT      -0.834000       15.9994           0
     27010 TIP3     6145     TIP3     H1       HT       0.417000       1.00800           0
     27011 TIP3     6145     TIP3     H2       HT       0.417000       1.00800           0
     27012 TIP3     6146     TIP3     OH2      OT      -0.834000       15.9994           0
     27013 TIP3     6146     TIP3     H1       HT       0.417000       1.00800           0
     27014 TIP3     6146     TIP3     H2       HT       0.417000       1.00800           0
     27015 TIP3     6147     TIP3     OH2      OT      -0.834000       15.9994           0
     27016 TIP3     6147     TIP3     H1       HT       0.417000       1.00800           0
     27017 TIP3     6147     TIP3     H2       HT       0.417000       1.00800           0
     27018 TIP3     6148     TIP3     OH2      OT      -0.834000       15.9994           0
     27019 TIP3     6148     TIP3     H1       HT       0.417000       1.00800           0
     27020 TIP3     6148     TIP3     H2       HT       0.417000       1.00800           0
     27021 TIP3     6149     TIP3     OH2      OT      -0.834000       15.9994           0
     27022 TIP3     6149     TIP3     H1       HT       0.417000       1.00800           0
     27023 TIP3     6149     TIP3     H2       HT       0.417000       1.00800           0
     27024 TIP3     6150     TIP3     OH2      OT      -0.834000       15.9994           0
     27025 TIP3     6150     TIP3     H1       HT       0.417000       1.00800           0
     27026 TIP3     6150     TIP3     H2       HT       0.417000       1.00800           0
     27027 TIP3     6151     TIP3     OH2      OT      -0.834000       15.9994           0
     27028 TIP3     6151     TIP3     H1       HT       0.417000       1.00800           0
     27029 TIP3     6151     TIP3     H2       HT       0.417000       1.00800           0
     27030 TIP3     6152     TIP3     OH2      OT      -0.834000       15.9994           0
     27031 TIP3     6152     TIP3     H1       HT       0.417000       1.00800           0
     27032 TIP3     6152     TIP3     H2       HT       0.417000       1.00800           0
     27033 TIP3     6153     TIP3     OH2      OT      -0.834000       15.9994           0
     27034 TIP3     6153     TIP3     H1       HT       0.417000       1.00800           0
     27035 TIP3     6153     TIP3     H2       HT       0.417000       1.00800           0
     27036 TIP3     6154     TIP3     OH2      OT      -0.834000       15.9994           0
     27037 TIP3     6154     TIP3     H1       HT       0.417000       1.00800           0
     27038 TIP3     6154     TIP3     H2       HT       0.417000       1.00800           0
     27039 TIP3     6155     TIP3     OH2      OT      -0.834000       15.9994           0
     27040 TIP3     6155     TIP3     H1       HT       0.417000       1.00800           0
     27041 TIP3     6155     TIP3     H2       HT       0.417000       1.00800           0
     27042 TIP3     6156     TIP3     OH2      OT      -0.834000       15.9994           0
     27043 TIP3     6156     TIP3     H1       HT       0.417000       1.00800           0
     27044 TIP3     6156     TIP3     H2       HT       0.417000       1.00800           0
     27045 TIP3     6157     TIP3     OH2      OT      -0.834000       15.9994           0
     27046 TIP3     6157     TIP3     H1       HT       0.417000       1.00800           0
     27047 TIP3     6157     TIP3     H2       HT       0.417000       1.00800           0
     27048 TIP3     6158     TIP3     OH2      OT      -0.834000       15.9994           0
     27049 TIP3     6158     TIP3     H1       HT       0.417000       1.00800           0
     27050 TIP3     6158     TIP3     H2       HT       0.417000       1.00800           0
     27051 TIP3     6159     TIP3     OH2      OT      -0.834000       15.9994           0
     27052 TIP3     6159     TIP3     H1       HT       0.417000       1.00800           0
     27053 TIP3     6159     TIP3     H2       HT       0.417000       1.00800           0
     27054 TIP3     6160     TIP3     OH2      OT      -0.834000       15.9994           0
     27055 TIP3     6160     TIP3     H1       HT       0.417000       1.00800           0
     27056 TIP3     6160     TIP3     H2       HT       0.417000       1.00800           0
     27057 TIP3     6161     TIP3     OH2      OT      -0.834000       15.9994           0
     27058 TIP3     6161     TIP3     H1       HT       0.417000       1.00800           0
     27059 TIP3     6161     TIP3     H2       HT       0.417000       1.00800           0
     27060 TIP3     6162     TIP3     OH2      OT      -0.834000       15.9994           0
     27061 TIP3     6162     TIP3     H1       HT       0.417000       1.00800           0
     27062 TIP3     6162     TIP3     H2       HT       0.417000       1.00800           0
     27063 TIP3     6163     TIP3     OH2      OT      -0.834000       15.9994           0
     27064 TIP3     6163     TIP3     H1       HT       0.417000       1.00800           0
     27065 TIP3     6163     TIP3     H2       HT       0.417000       1.00800           0
     27066 TIP3     6164     TIP3     OH2      OT      -0.834000       15.9994           0
     27067 TIP3     6164     TIP3     H1       HT       0.417000       1.00800           0
     27068 TIP3     6164     TIP3     H2       HT       0.417000       1.00800           0
     27069 TIP3     6165     TIP3     OH2      OT      -0.834000       15.9994           0
     27070 TIP3     6165     TIP3     H1       HT       0.417000       1.00800           0
     27071 TIP3     6165     TIP3     H2       HT       0.417000       1.00800           0
     27072 TIP3     6166     TIP3     OH2      OT      -0.834000       15.9994           0
     27073 TIP3     6166     TIP3     H1       HT       0.417000       1.00800           0
     27074 TIP3     6166     TIP3     H2       HT       0.417000       1.00800           0
     27075 TIP3     6167     TIP3     OH2      OT      -0.834000       15.9994           0
     27076 TIP3     6167     TIP3     H1       HT       0.417000       1.00800           0
     27077 TIP3     6167     TIP3     H2       HT       0.417000       1.00800           0
     27078 TIP3     6168     TIP3     OH2      OT      -0.834000       15.9994           0
     27079 TIP3     6168     TIP3     H1       HT       0.417000       1.00800           0
     27080 TIP3     6168     TIP3     H2       HT       0.417000       1.00800           0
     27081 TIP3     6169     TIP3     OH2      OT      -0.834000       15.9994           0
     27082 TIP3     6169     TIP3     H1       HT       0.417000       1.00800           0
     27083 TIP3     6169     TIP3     H2       HT       0.417000       1.00800           0
     27084 TIP3     6170     TIP3     OH2      OT      -0.834000       15.9994           0
     27085 TIP3     6170     TIP3     H1       HT       0.417000       1.00800           0
     27086 TIP3     6170     TIP3     H2       HT       0.417000       1.00800           0
     27087 TIP3     6171     TIP3     OH2      OT      -0.834000       15.9994           0
     27088 TIP3     6171     TIP3     H1       HT       0.417000       1.00800           0
     27089 TIP3     6171     TIP3     H2       HT       0.417000       1.00800           0
     27090 TIP3     6172     TIP3     OH2      OT      -0.834000       15.9994           0
     27091 TIP3     6172     TIP3     H1       HT       0.417000       1.00800           0
     27092 TIP3     6172     TIP3     H2       HT       0.417000       1.00800           0
     27093 TIP3     6173     TIP3     OH2      OT      -0.834000       15.9994           0
     27094 TIP3     6173     TIP3     H1       HT       0.417000       1.00800           0
     27095 TIP3     6173     TIP3     H2       HT       0.417000       1.00800           0
     27096 TIP3     6174     TIP3     OH2      OT      -0.834000       15.9994           0
     27097 TIP3     6174     TIP3     H1       HT       0.417000       1.00800           0
     27098 TIP3     6174     TIP3     H2       HT       0.417000       1.00800           0
     27099 TIP3     6175     TIP3     OH2      OT      -0.834000       15.9994           0
     27100 TIP3     6175     TIP3     H1       HT       0.417000       1.00800           0
     27101 TIP3     6175     TIP3     H2       HT       0.417000       1.00800           0
     27102 TIP3     6176     TIP3     OH2      OT      -0.834000       15.9994           0
     27103 TIP3     6176     TIP3     H1       HT       0.417000       1.00800           0
     27104 TIP3     6176     TIP3     H2       HT       0.417000       1.00800           0
     27105 TIP3     6177     TIP3     OH2      OT      -0.834000       15.9994           0
     27106 TIP3     6177     TIP3     H1       HT       0.417000       1.00800           0
     27107 TIP3     6177     TIP3     H2       HT       0.417000       1.00800           0
     27108 TIP3     6178     TIP3     OH2      OT      -0.834000       15.9994           0
     27109 TIP3     6178     TIP3     H1       HT       0.417000       1.00800           0
     27110 TIP3     6178     TIP3     H2       HT       0.417000       1.00800           0
     27111 TIP3     6179     TIP3     OH2      OT      -0.834000       15.9994           0
     27112 TIP3     6179     TIP3     H1       HT       0.417000       1.00800           0
     27113 TIP3     6179     TIP3     H2       HT       0.417000       1.00800           0
     27114 TIP3     6180     TIP3     OH2      OT      -0.834000       15.9994           0
     27115 TIP3     6180     TIP3     H1       HT       0.417000       1.00800           0
     27116 TIP3     6180     TIP3     H2       HT       0.417000       1.00800           0
     27117 TIP3     6181     TIP3     OH2      OT      -0.834000       15.9994           0
     27118 TIP3     6181     TIP3     H1       HT       0.417000       1.00800           0
     27119 TIP3     6181     TIP3     H2       HT       0.417000       1.00800           0
     27120 TIP3     6182     TIP3     OH2      OT      -0.834000       15.9994           0
     27121 TIP3     6182     TIP3     H1       HT       0.417000       1.00800           0
     27122 TIP3     6182     TIP3     H2       HT       0.417000       1.00800           0
     27123 TIP3     6183     TIP3     OH2      OT      -0.834000       15.9994           0
     27124 TIP3     6183     TIP3     H1       HT       0.417000       1.00800           0
     27125 TIP3     6183     TIP3     H2       HT       0.417000       1.00800           0
     27126 TIP3     6184     TIP3     OH2      OT      -0.834000       15.9994           0
     27127 TIP3     6184     TIP3     H1       HT       0.417000       1.00800           0
     27128 TIP3     6184     TIP3     H2       HT       0.417000       1.00800           0
     27129 TIP3     6185     TIP3     OH2      OT      -0.834000       15.9994           0
     27130 TIP3     6185     TIP3     H1       HT       0.417000       1.00800           0
     27131 TIP3     6185     TIP3     H2       HT       0.417000       1.00800           0
     27132 TIP3     6186     TIP3     OH2      OT      -0.834000       15.9994           0
     27133 TIP3     6186     TIP3     H1       HT       0.417000       1.00800           0
     27134 TIP3     6186     TIP3     H2       HT       0.417000       1.00800           0
     27135 TIP3     6187     TIP3     OH2      OT      -0.834000       15.9994           0
     27136 TIP3     6187     TIP3     H1       HT       0.417000       1.00800           0
     27137 TIP3     6187     TIP3     H2       HT       0.417000       1.00800           0
     27138 TIP3     6188     TIP3     OH2      OT      -0.834000       15.9994           0
     27139 TIP3     6188     TIP3     H1       HT       0.417000       1.00800           0
     27140 TIP3     6188     TIP3     H2       HT       0.417000       1.00800           0
     27141 TIP3     6189     TIP3     OH2      OT      -0.834000       15.9994           0
     27142 TIP3     6189     TIP3     H1       HT       0.417000       1.00800           0
     27143 TIP3     6189     TIP3     H2       HT       0.417000       1.00800           0
     27144 TIP3     6190     TIP3     OH2      OT      -0.834000       15.9994           0
     27145 TIP3     6190     TIP3     H1       HT       0.417000       1.00800           0
     27146 TIP3     6190     TIP3     H2       HT       0.417000       1.00800           0
     27147 TIP3     6191     TIP3     OH2      OT      -0.834000       15.9994           0
     27148 TIP3     6191     TIP3     H1       HT       0.417000       1.00800           0
     27149 TIP3     6191     TIP3     H2       HT       0.417000       1.00800           0
     27150 TIP3     6192     TIP3     OH2      OT      -0.834000       15.9994           0
     27151 TIP3     6192     TIP3     H1       HT       0.417000       1.00800           0
     27152 TIP3     6192     TIP3     H2       HT       0.417000       1.00800           0
     27153 TIP3     6193     TIP3     OH2      OT      -0.834000       15.9994           0
     27154 TIP3     6193     TIP3     H1       HT       0.417000       1.00800           0
     27155 TIP3     6193     TIP3     H2       HT       0.417000       1.00800           0
     27156 TIP3     6194     TIP3     OH2      OT      -0.834000       15.9994           0
     27157 TIP3     6194     TIP3     H1       HT       0.417000       1.00800           0
     27158 TIP3     6194     TIP3     H2       HT       0.417000       1.00800           0
     27159 TIP3     6195     TIP3     OH2      OT      -0.834000       15.9994           0
     27160 TIP3     6195     TIP3     H1       HT       0.417000       1.00800           0
     27161 TIP3     6195     TIP3     H2       HT       0.417000       1.00800           0
     27162 TIP3     6196     TIP3     OH2      OT      -0.834000       15.9994           0
     27163 TIP3     6196     TIP3     H1       HT       0.417000       1.00800           0
     27164 TIP3     6196     TIP3     H2       HT       0.417000       1.00800           0
     27165 TIP3     6197     TIP3     OH2      OT      -0.834000       15.9994           0
     27166 TIP3     6197     TIP3     H1       HT       0.417000       1.00800           0
     27167 TIP3     6197     TIP3     H2       HT       0.417000       1.00800           0
     27168 TIP3     6198     TIP3     OH2      OT      -0.834000       15.9994           0
     27169 TIP3     6198     TIP3     H1       HT       0.417000       1.00800           0
     27170 TIP3     6198     TIP3     H2       HT       0.417000       1.00800           0
     27171 TIP3     6199     TIP3     OH2      OT      -0.834000       15.9994           0
     27172 TIP3     6199     TIP3     H1       HT       0.417000       1.00800           0
     27173 TIP3     6199     TIP3     H2       HT       0.417000       1.00800           0
     27174 TIP3     6200     TIP3     OH2      OT      -0.834000       15.9994           0
     27175 TIP3     6200     TIP3     H1       HT       0.417000       1.00800           0
     27176 TIP3     6200     TIP3     H2       HT       0.417000       1.00800           0
     27177 TIP3     6201     TIP3     OH2      OT      -0.834000       15.9994           0
     27178 TIP3     6201     TIP3     H1       HT       0.417000       1.00800           0
     27179 TIP3     6201     TIP3     H2       HT       0.417000       1.00800           0
     27180 TIP3     6202     TIP3     OH2      OT      -0.834000       15.9994           0
     27181 TIP3     6202     TIP3     H1       HT       0.417000       1.00800           0
     27182 TIP3     6202     TIP3     H2       HT       0.417000       1.00800           0
     27183 TIP3     6203     TIP3     OH2      OT      -0.834000       15.9994           0
     27184 TIP3     6203     TIP3     H1       HT       0.417000       1.00800           0
     27185 TIP3     6203     TIP3     H2       HT       0.417000       1.00800           0
     27186 TIP3     6204     TIP3     OH2      OT      -0.834000       15.9994           0
     27187 TIP3     6204     TIP3     H1       HT       0.417000       1.00800           0
     27188 TIP3     6204     TIP3     H2       HT       0.417000       1.00800           0
     27189 TIP3     6205     TIP3     OH2      OT      -0.834000       15.9994           0
     27190 TIP3     6205     TIP3     H1       HT       0.417000       1.00800           0
     27191 TIP3     6205     TIP3     H2       HT       0.417000       1.00800           0
     27192 TIP3     6206     TIP3     OH2      OT      -0.834000       15.9994           0
     27193 TIP3     6206     TIP3     H1       HT       0.417000       1.00800           0
     27194 TIP3     6206     TIP3     H2       HT       0.417000       1.00800           0
     27195 TIP3     6207     TIP3     OH2      OT      -0.834000       15.9994           0
     27196 TIP3     6207     TIP3     H1       HT       0.417000       1.00800           0
     27197 TIP3     6207     TIP3     H2       HT       0.417000       1.00800           0
     27198 TIP3     6208     TIP3     OH2      OT      -0.834000       15.9994           0
     27199 TIP3     6208     TIP3     H1       HT       0.417000       1.00800           0
     27200 TIP3     6208     TIP3     H2       HT       0.417000       1.00800           0
     27201 TIP3     6209     TIP3     OH2      OT      -0.834000       15.9994           0
     27202 TIP3     6209     TIP3     H1       HT       0.417000       1.00800           0
     27203 TIP3     6209     TIP3     H2       HT       0.417000       1.00800           0
     27204 TIP3     6210     TIP3     OH2      OT      -0.834000       15.9994           0
     27205 TIP3     6210     TIP3     H1       HT       0.417000       1.00800           0
     27206 TIP3     6210     TIP3     H2       HT       0.417000       1.00800           0
     27207 TIP3     6211     TIP3     OH2      OT      -0.834000       15.9994           0
     27208 TIP3     6211     TIP3     H1       HT       0.417000       1.00800           0
     27209 TIP3     6211     TIP3     H2       HT       0.417000       1.00800           0
     27210 TIP3     6212     TIP3     OH2      OT      -0.834000       15.9994           0
     27211 TIP3     6212     TIP3     H1       HT       0.417000       1.00800           0
     27212 TIP3     6212     TIP3     H2       HT       0.417000       1.00800           0
     27213 TIP3     6213     TIP3     OH2      OT      -0.834000       15.9994           0
     27214 TIP3     6213     TIP3     H1       HT       0.417000       1.00800           0
     27215 TIP3     6213     TIP3     H2       HT       0.417000       1.00800           0
     27216 TIP3     6214     TIP3     OH2      OT      -0.834000       15.9994           0
     27217 TIP3     6214     TIP3     H1       HT       0.417000       1.00800           0
     27218 TIP3     6214     TIP3     H2       HT       0.417000       1.00800           0
     27219 TIP3     6215     TIP3     OH2      OT      -0.834000       15.9994           0
     27220 TIP3     6215     TIP3     H1       HT       0.417000       1.00800           0
     27221 TIP3     6215     TIP3     H2       HT       0.417000       1.00800           0
     27222 TIP3     6216     TIP3     OH2      OT      -0.834000       15.9994           0
     27223 TIP3     6216     TIP3     H1       HT       0.417000       1.00800           0
     27224 TIP3     6216     TIP3     H2       HT       0.417000       1.00800           0
     27225 TIP3     6217     TIP3     OH2      OT      -0.834000       15.9994           0
     27226 TIP3     6217     TIP3     H1       HT       0.417000       1.00800           0
     27227 TIP3     6217     TIP3     H2       HT       0.417000       1.00800           0
     27228 TIP3     6218     TIP3     OH2      OT      -0.834000       15.9994           0
     27229 TIP3     6218     TIP3     H1       HT       0.417000       1.00800           0
     27230 TIP3     6218     TIP3     H2       HT       0.417000       1.00800           0
     27231 TIP3     6219     TIP3     OH2      OT      -0.834000       15.9994           0
     27232 TIP3     6219     TIP3     H1       HT       0.417000       1.00800           0
     27233 TIP3     6219     TIP3     H2       HT       0.417000       1.00800           0
     27234 TIP3     6220     TIP3     OH2      OT      -0.834000       15.9994           0
     27235 TIP3     6220     TIP3     H1       HT       0.417000       1.00800           0
     27236 TIP3     6220     TIP3     H2       HT       0.417000       1.00800           0
     27237 TIP3     6221     TIP3     OH2      OT      -0.834000       15.9994           0
     27238 TIP3     6221     TIP3     H1       HT       0.417000       1.00800           0
     27239 TIP3     6221     TIP3     H2       HT       0.417000       1.00800           0
     27240 TIP3     6222     TIP3     OH2      OT      -0.834000       15.9994           0
     27241 TIP3     6222     TIP3     H1       HT       0.417000       1.00800           0
     27242 TIP3     6222     TIP3     H2       HT       0.417000       1.00800           0
     27243 TIP3     6223     TIP3     OH2      OT      -0.834000       15.9994           0
     27244 TIP3     6223     TIP3     H1       HT       0.417000       1.00800           0
     27245 TIP3     6223     TIP3     H2       HT       0.417000       1.00800           0
     27246 TIP3     6224     TIP3     OH2      OT      -0.834000       15.9994           0
     27247 TIP3     6224     TIP3     H1       HT       0.417000       1.00800           0
     27248 TIP3     6224     TIP3     H2       HT       0.417000       1.00800           0
     27249 TIP3     6225     TIP3     OH2      OT      -0.834000       15.9994           0
     27250 TIP3     6225     TIP3     H1       HT       0.417000       1.00800           0
     27251 TIP3     6225     TIP3     H2       HT       0.417000       1.00800           0
     27252 TIP3     6226     TIP3     OH2      OT      -0.834000       15.9994           0
     27253 TIP3     6226     TIP3     H1       HT       0.417000       1.00800           0
     27254 TIP3     6226     TIP3     H2       HT       0.417000       1.00800           0
     27255 TIP3     6227     TIP3     OH2      OT      -0.834000       15.9994           0
     27256 TIP3     6227     TIP3     H1       HT       0.417000       1.00800           0
     27257 TIP3     6227     TIP3     H2       HT       0.417000       1.00800           0
     27258 TIP3     6228     TIP3     OH2      OT      -0.834000       15.9994           0
     27259 TIP3     6228     TIP3     H1       HT       0.417000       1.00800           0
     27260 TIP3     6228     TIP3     H2       HT       0.417000       1.00800           0
     27261 TIP3     6229     TIP3     OH2      OT      -0.834000       15.9994           0
     27262 TIP3     6229     TIP3     H1       HT       0.417000       1.00800           0
     27263 TIP3     6229     TIP3     H2       HT       0.417000       1.00800           0
     27264 TIP3     6230     TIP3     OH2      OT      -0.834000       15.9994           0
     27265 TIP3     6230     TIP3     H1       HT       0.417000       1.00800           0
     27266 TIP3     6230     TIP3     H2       HT       0.417000       1.00800           0
     27267 TIP3     6231     TIP3     OH2      OT      -0.834000       15.9994           0
     27268 TIP3     6231     TIP3     H1       HT       0.417000       1.00800           0
     27269 TIP3     6231     TIP3     H2       HT       0.417000       1.00800           0
     27270 TIP3     6232     TIP3     OH2      OT      -0.834000       15.9994           0
     27271 TIP3     6232     TIP3     H1       HT       0.417000       1.00800           0
     27272 TIP3     6232     TIP3     H2       HT       0.417000       1.00800           0
     27273 TIP3     6233     TIP3     OH2      OT      -0.834000       15.9994           0
     27274 TIP3     6233     TIP3     H1       HT       0.417000       1.00800           0
     27275 TIP3     6233     TIP3     H2       HT       0.417000       1.00800           0
     27276 TIP3     6234     TIP3     OH2      OT      -0.834000       15.9994           0
     27277 TIP3     6234     TIP3     H1       HT       0.417000       1.00800           0
     27278 TIP3     6234     TIP3     H2       HT       0.417000       1.00800           0
     27279 TIP3     6235     TIP3     OH2      OT      -0.834000       15.9994           0
     27280 TIP3     6235     TIP3     H1       HT       0.417000       1.00800           0
     27281 TIP3     6235     TIP3     H2       HT       0.417000       1.00800           0
     27282 TIP3     6236     TIP3     OH2      OT      -0.834000       15.9994           0
     27283 TIP3     6236     TIP3     H1       HT       0.417000       1.00800           0
     27284 TIP3     6236     TIP3     H2       HT       0.417000       1.00800           0
     27285 TIP3     6237     TIP3     OH2      OT      -0.834000       15.9994           0
     27286 TIP3     6237     TIP3     H1       HT       0.417000       1.00800           0
     27287 TIP3     6237     TIP3     H2       HT       0.417000       1.00800           0
     27288 TIP3     6238     TIP3     OH2      OT      -0.834000       15.9994           0
     27289 TIP3     6238     TIP3     H1       HT       0.417000       1.00800           0
     27290 TIP3     6238     TIP3     H2       HT       0.417000       1.00800           0
     27291 TIP3     6239     TIP3     OH2      OT      -0.834000       15.9994           0
     27292 TIP3     6239     TIP3     H1       HT       0.417000       1.00800           0
     27293 TIP3     6239     TIP3     H2       HT       0.417000       1.00800           0
     27294 TIP3     6240     TIP3     OH2      OT      -0.834000       15.9994           0
     27295 TIP3     6240     TIP3     H1       HT       0.417000       1.00800           0
     27296 TIP3     6240     TIP3     H2       HT       0.417000       1.00800           0
     27297 TIP3     6241     TIP3     OH2      OT      -0.834000       15.9994           0
     27298 TIP3     6241     TIP3     H1       HT       0.417000       1.00800           0
     27299 TIP3     6241     TIP3     H2       HT       0.417000       1.00800           0
     27300 TIP3     6242     TIP3     OH2      OT      -0.834000       15.9994           0
     27301 TIP3     6242     TIP3     H1       HT       0.417000       1.00800           0
     27302 TIP3     6242     TIP3     H2       HT       0.417000       1.00800           0
     27303 TIP3     6243     TIP3     OH2      OT      -0.834000       15.9994           0
     27304 TIP3     6243     TIP3     H1       HT       0.417000       1.00800           0
     27305 TIP3     6243     TIP3     H2       HT       0.417000       1.00800           0
     27306 TIP3     6244     TIP3     OH2      OT      -0.834000       15.9994           0
     27307 TIP3     6244     TIP3     H1       HT       0.417000       1.00800           0
     27308 TIP3     6244     TIP3     H2       HT       0.417000       1.00800           0
     27309 TIP3     6245     TIP3     OH2      OT      -0.834000       15.9994           0
     27310 TIP3     6245     TIP3     H1       HT       0.417000       1.00800           0
     27311 TIP3     6245     TIP3     H2       HT       0.417000       1.00800           0
     27312 TIP3     6246     TIP3     OH2      OT      -0.834000       15.9994           0
     27313 TIP3     6246     TIP3     H1       HT       0.417000       1.00800           0
     27314 TIP3     6246     TIP3     H2       HT       0.417000       1.00800           0
     27315 TIP3     6247     TIP3     OH2      OT      -0.834000       15.9994           0
     27316 TIP3     6247     TIP3     H1       HT       0.417000       1.00800           0
     27317 TIP3     6247     TIP3     H2       HT       0.417000       1.00800           0
     27318 TIP3     6248     TIP3     OH2      OT      -0.834000       15.9994           0
     27319 TIP3     6248     TIP3     H1       HT       0.417000       1.00800           0
     27320 TIP3     6248     TIP3     H2       HT       0.417000       1.00800           0
     27321 TIP3     6249     TIP3     OH2      OT      -0.834000       15.9994           0
     27322 TIP3     6249     TIP3     H1       HT       0.417000       1.00800           0
     27323 TIP3     6249     TIP3     H2       HT       0.417000       1.00800           0
     27324 TIP3     6250     TIP3     OH2      OT      -0.834000       15.9994           0
     27325 TIP3     6250     TIP3     H1       HT       0.417000       1.00800           0
     27326 TIP3     6250     TIP3     H2       HT       0.417000       1.00800           0
     27327 TIP3     6251     TIP3     OH2      OT      -0.834000       15.9994           0
     27328 TIP3     6251     TIP3     H1       HT       0.417000       1.00800           0
     27329 TIP3     6251     TIP3     H2       HT       0.417000       1.00800           0
     27330 TIP3     6252     TIP3     OH2      OT      -0.834000       15.9994           0
     27331 TIP3     6252     TIP3     H1       HT       0.417000       1.00800           0
     27332 TIP3     6252     TIP3     H2       HT       0.417000       1.00800           0
     27333 TIP3     6253     TIP3     OH2      OT      -0.834000       15.9994           0
     27334 TIP3     6253     TIP3     H1       HT       0.417000       1.00800           0
     27335 TIP3     6253     TIP3     H2       HT       0.417000       1.00800           0
     27336 TIP3     6254     TIP3     OH2      OT      -0.834000       15.9994           0
     27337 TIP3     6254     TIP3     H1       HT       0.417000       1.00800           0
     27338 TIP3     6254     TIP3     H2       HT       0.417000       1.00800           0
     27339 TIP3     6255     TIP3     OH2      OT      -0.834000       15.9994           0
     27340 TIP3     6255     TIP3     H1       HT       0.417000       1.00800           0
     27341 TIP3     6255     TIP3     H2       HT       0.417000       1.00800           0
     27342 TIP3     6256     TIP3     OH2      OT      -0.834000       15.9994           0
     27343 TIP3     6256     TIP3     H1       HT       0.417000       1.00800           0
     27344 TIP3     6256     TIP3     H2       HT       0.417000       1.00800           0
     27345 TIP3     6257     TIP3     OH2      OT      -0.834000       15.9994           0
     27346 TIP3     6257     TIP3     H1       HT       0.417000       1.00800           0
     27347 TIP3     6257     TIP3     H2       HT       0.417000       1.00800           0
     27348 TIP3     6258     TIP3     OH2      OT      -0.834000       15.9994           0
     27349 TIP3     6258     TIP3     H1       HT       0.417000       1.00800           0
     27350 TIP3     6258     TIP3     H2       HT       0.417000       1.00800           0
     27351 TIP3     6259     TIP3     OH2      OT      -0.834000       15.9994           0
     27352 TIP3     6259     TIP3     H1       HT       0.417000       1.00800           0
     27353 TIP3     6259     TIP3     H2       HT       0.417000       1.00800           0
     27354 TIP3     6260     TIP3     OH2      OT      -0.834000       15.9994           0
     27355 TIP3     6260     TIP3     H1       HT       0.417000       1.00800           0
     27356 TIP3     6260     TIP3     H2       HT       0.417000       1.00800           0
     27357 TIP3     6261     TIP3     OH2      OT      -0.834000       15.9994           0
     27358 TIP3     6261     TIP3     H1       HT       0.417000       1.00800           0
     27359 TIP3     6261     TIP3     H2       HT       0.417000       1.00800           0
     27360 TIP3     6262     TIP3     OH2      OT      -0.834000       15.9994           0
     27361 TIP3     6262     TIP3     H1       HT       0.417000       1.00800           0
     27362 TIP3     6262     TIP3     H2       HT       0.417000       1.00800           0
     27363 TIP3     6263     TIP3     OH2      OT      -0.834000       15.9994           0
     27364 TIP3     6263     TIP3     H1       HT       0.417000       1.00800           0
     27365 TIP3     6263     TIP3     H2       HT       0.417000       1.00800           0
     27366 TIP3     6264     TIP3     OH2      OT      -0.834000       15.9994           0
     27367 TIP3     6264     TIP3     H1       HT       0.417000       1.00800           0
     27368 TIP3     6264     TIP3     H2       HT       0.417000       1.00800           0
     27369 TIP3     6265     TIP3     OH2      OT      -0.834000       15.9994           0
     27370 TIP3     6265     TIP3     H1       HT       0.417000       1.00800           0
     27371 TIP3     6265     TIP3     H2       HT       0.417000       1.00800           0
     27372 TIP3     6266     TIP3     OH2      OT      -0.834000       15.9994           0
     27373 TIP3     6266     TIP3     H1       HT       0.417000       1.00800           0
     27374 TIP3     6266     TIP3     H2       HT       0.417000       1.00800           0
     27375 TIP3     6267     TIP3     OH2      OT      -0.834000       15.9994           0
     27376 TIP3     6267     TIP3     H1       HT       0.417000       1.00800           0
     27377 TIP3     6267     TIP3     H2       HT       0.417000       1.00800           0
     27378 TIP3     6268     TIP3     OH2      OT      -0.834000       15.9994           0
     27379 TIP3     6268     TIP3     H1       HT       0.417000       1.00800           0
     27380 TIP3     6268     TIP3     H2       HT       0.417000       1.00800           0
     27381 TIP3     6269     TIP3     OH2      OT      -0.834000       15.9994           0
     27382 TIP3     6269     TIP3     H1       HT       0.417000       1.00800           0
     27383 TIP3     6269     TIP3     H2       HT       0.417000       1.00800           0
     27384 TIP3     6270     TIP3     OH2      OT      -0.834000       15.9994           0
     27385 TIP3     6270     TIP3     H1       HT       0.417000       1.00800           0
     27386 TIP3     6270     TIP3     H2       HT       0.417000       1.00800           0
     27387 TIP3     6271     TIP3     OH2      OT      -0.834000       15.9994           0
     27388 TIP3     6271     TIP3     H1       HT       0.417000       1.00800           0
     27389 TIP3     6271     TIP3     H2       HT       0.417000       1.00800           0
     27390 TIP3     6272     TIP3     OH2      OT      -0.834000       15.9994           0
     27391 TIP3     6272     TIP3     H1       HT       0.417000       1.00800           0
     27392 TIP3     6272     TIP3     H2       HT       0.417000       1.00800           0
     27393 TIP3     6273     TIP3     OH2      OT      -0.834000       15.9994           0
     27394 TIP3     6273     TIP3     H1       HT       0.417000       1.00800           0
     27395 TIP3     6273     TIP3     H2       HT       0.417000       1.00800           0
     27396 TIP3     6274     TIP3     OH2      OT      -0.834000       15.9994           0
     27397 TIP3     6274     TIP3     H1       HT       0.417000       1.00800           0
     27398 TIP3     6274     TIP3     H2       HT       0.417000       1.00800           0
     27399 TIP3     6275     TIP3     OH2      OT      -0.834000       15.9994           0
     27400 TIP3     6275     TIP3     H1       HT       0.417000       1.00800           0
     27401 TIP3     6275     TIP3     H2       HT       0.417000       1.00800           0
     27402 TIP3     6276     TIP3     OH2      OT      -0.834000       15.9994           0
     27403 TIP3     6276     TIP3     H1       HT       0.417000       1.00800           0
     27404 TIP3     6276     TIP3     H2       HT       0.417000       1.00800           0
     27405 TIP3     6277     TIP3     OH2      OT      -0.834000       15.9994           0
     27406 TIP3     6277     TIP3     H1       HT       0.417000       1.00800           0
     27407 TIP3     6277     TIP3     H2       HT       0.417000       1.00800           0
     27408 TIP3     6278     TIP3     OH2      OT      -0.834000       15.9994           0
     27409 TIP3     6278     TIP3     H1       HT       0.417000       1.00800           0
     27410 TIP3     6278     TIP3     H2       HT       0.417000       1.00800           0
     27411 TIP3     6279     TIP3     OH2      OT      -0.834000       15.9994           0
     27412 TIP3     6279     TIP3     H1       HT       0.417000       1.00800           0
     27413 TIP3     6279     TIP3     H2       HT       0.417000       1.00800           0
     27414 TIP3     6280     TIP3     OH2      OT      -0.834000       15.9994           0
     27415 TIP3     6280     TIP3     H1       HT       0.417000       1.00800           0
     27416 TIP3     6280     TIP3     H2       HT       0.417000       1.00800           0
     27417 TIP3     6281     TIP3     OH2      OT      -0.834000       15.9994           0
     27418 TIP3     6281     TIP3     H1       HT       0.417000       1.00800           0
     27419 TIP3     6281     TIP3     H2       HT       0.417000       1.00800           0
     27420 TIP3     6282     TIP3     OH2      OT      -0.834000       15.9994           0
     27421 TIP3     6282     TIP3     H1       HT       0.417000       1.00800           0
     27422 TIP3     6282     TIP3     H2       HT       0.417000       1.00800           0
     27423 TIP3     6283     TIP3     OH2      OT      -0.834000       15.9994           0
     27424 TIP3     6283     TIP3     H1       HT       0.417000       1.00800           0
     27425 TIP3     6283     TIP3     H2       HT       0.417000       1.00800           0
     27426 TIP3     6284     TIP3     OH2      OT      -0.834000       15.9994           0
     27427 TIP3     6284     TIP3     H1       HT       0.417000       1.00800           0
     27428 TIP3     6284     TIP3     H2       HT       0.417000       1.00800           0
     27429 TIP3     6285     TIP3     OH2      OT      -0.834000       15.9994           0
     27430 TIP3     6285     TIP3     H1       HT       0.417000       1.00800           0
     27431 TIP3     6285     TIP3     H2       HT       0.417000       1.00800           0
     27432 TIP3     6286     TIP3     OH2      OT      -0.834000       15.9994           0
     27433 TIP3     6286     TIP3     H1       HT       0.417000       1.00800           0
     27434 TIP3     6286     TIP3     H2       HT       0.417000       1.00800           0
     27435 TIP3     6287     TIP3     OH2      OT      -0.834000       15.9994           0
     27436 TIP3     6287     TIP3     H1       HT       0.417000       1.00800           0
     27437 TIP3     6287     TIP3     H2       HT       0.417000       1.00800           0
     27438 TIP3     6288     TIP3     OH2      OT      -0.834000       15.9994           0
     27439 TIP3     6288     TIP3     H1       HT       0.417000       1.00800           0
     27440 TIP3     6288     TIP3     H2       HT       0.417000       1.00800           0
     27441 TIP3     6289     TIP3     OH2      OT      -0.834000       15.9994           0
     27442 TIP3     6289     TIP3     H1       HT       0.417000       1.00800           0
     27443 TIP3     6289     TIP3     H2       HT       0.417000       1.00800           0
     27444 TIP3     6290     TIP3     OH2      OT      -0.834000       15.9994           0
     27445 TIP3     6290     TIP3     H1       HT       0.417000       1.00800           0
     27446 TIP3     6290     TIP3     H2       HT       0.417000       1.00800           0
     27447 TIP3     6291     TIP3     OH2      OT      -0.834000       15.9994           0
     27448 TIP3     6291     TIP3     H1       HT       0.417000       1.00800           0
     27449 TIP3     6291     TIP3     H2       HT       0.417000       1.00800           0
     27450 TIP3     6292     TIP3     OH2      OT      -0.834000       15.9994           0
     27451 TIP3     6292     TIP3     H1       HT       0.417000       1.00800           0
     27452 TIP3     6292     TIP3     H2       HT       0.417000       1.00800           0
     27453 TIP3     6293     TIP3     OH2      OT      -0.834000       15.9994           0
     27454 TIP3     6293     TIP3     H1       HT       0.417000       1.00800           0
     27455 TIP3     6293     TIP3     H2       HT       0.417000       1.00800           0
     27456 TIP3     6294     TIP3     OH2      OT      -0.834000       15.9994           0
     27457 TIP3     6294     TIP3     H1       HT       0.417000       1.00800           0
     27458 TIP3     6294     TIP3     H2       HT       0.417000       1.00800           0
     27459 TIP3     6295     TIP3     OH2      OT      -0.834000       15.9994           0
     27460 TIP3     6295     TIP3     H1       HT       0.417000       1.00800           0
     27461 TIP3     6295     TIP3     H2       HT       0.417000       1.00800           0
     27462 TIP3     6296     TIP3     OH2      OT      -0.834000       15.9994           0
     27463 TIP3     6296     TIP3     H1       HT       0.417000       1.00800           0
     27464 TIP3     6296     TIP3     H2       HT       0.417000       1.00800           0
     27465 TIP3     6297     TIP3     OH2      OT      -0.834000       15.9994           0
     27466 TIP3     6297     TIP3     H1       HT       0.417000       1.00800           0
     27467 TIP3     6297     TIP3     H2       HT       0.417000       1.00800           0
     27468 TIP3     6298     TIP3     OH2      OT      -0.834000       15.9994           0
     27469 TIP3     6298     TIP3     H1       HT       0.417000       1.00800           0
     27470 TIP3     6298     TIP3     H2       HT       0.417000       1.00800           0
     27471 TIP3     6299     TIP3     OH2      OT      -0.834000       15.9994           0
     27472 TIP3     6299     TIP3     H1       HT       0.417000       1.00800           0
     27473 TIP3     6299     TIP3     H2       HT       0.417000       1.00800           0
     27474 TIP3     6300     TIP3     OH2      OT      -0.834000       15.9994           0
     27475 TIP3     6300     TIP3     H1       HT       0.417000       1.00800           0
     27476 TIP3     6300     TIP3     H2       HT       0.417000       1.00800           0
     27477 TIP3     6301     TIP3     OH2      OT      -0.834000       15.9994           0
     27478 TIP3     6301     TIP3     H1       HT       0.417000       1.00800           0
     27479 TIP3     6301     TIP3     H2       HT       0.417000       1.00800           0
     27480 TIP3     6302     TIP3     OH2      OT      -0.834000       15.9994           0
     27481 TIP3     6302     TIP3     H1       HT       0.417000       1.00800           0
     27482 TIP3     6302     TIP3     H2       HT       0.417000       1.00800           0
     27483 TIP3     6303     TIP3     OH2      OT      -0.834000       15.9994           0
     27484 TIP3     6303     TIP3     H1       HT       0.417000       1.00800           0
     27485 TIP3     6303     TIP3     H2       HT       0.417000       1.00800           0
     27486 TIP3     6304     TIP3     OH2      OT      -0.834000       15.9994           0
     27487 TIP3     6304     TIP3     H1       HT       0.417000       1.00800           0
     27488 TIP3     6304     TIP3     H2       HT       0.417000       1.00800           0
     27489 TIP3     6305     TIP3     OH2      OT      -0.834000       15.9994           0
     27490 TIP3     6305     TIP3     H1       HT       0.417000       1.00800           0
     27491 TIP3     6305     TIP3     H2       HT       0.417000       1.00800           0
     27492 TIP3     6306     TIP3     OH2      OT      -0.834000       15.9994           0
     27493 TIP3     6306     TIP3     H1       HT       0.417000       1.00800           0
     27494 TIP3     6306     TIP3     H2       HT       0.417000       1.00800           0
     27495 TIP3     6307     TIP3     OH2      OT      -0.834000       15.9994           0
     27496 TIP3     6307     TIP3     H1       HT       0.417000       1.00800           0
     27497 TIP3     6307     TIP3     H2       HT       0.417000       1.00800           0
     27498 TIP3     6308     TIP3     OH2      OT      -0.834000       15.9994           0
     27499 TIP3     6308     TIP3     H1       HT       0.417000       1.00800           0
     27500 TIP3     6308     TIP3     H2       HT       0.417000       1.00800           0
     27501 TIP3     6309     TIP3     OH2      OT      -0.834000       15.9994           0
     27502 TIP3     6309     TIP3     H1       HT       0.417000       1.00800           0
     27503 TIP3     6309     TIP3     H2       HT       0.417000       1.00800           0
     27504 TIP3     6310     TIP3     OH2      OT      -0.834000       15.9994           0
     27505 TIP3     6310     TIP3     H1       HT       0.417000       1.00800           0
     27506 TIP3     6310     TIP3     H2       HT       0.417000       1.00800           0
     27507 TIP3     6311     TIP3     OH2      OT      -0.834000       15.9994           0
     27508 TIP3     6311     TIP3     H1       HT       0.417000       1.00800           0
     27509 TIP3     6311     TIP3     H2       HT       0.417000       1.00800           0
     27510 TIP3     6312     TIP3     OH2      OT      -0.834000       15.9994           0
     27511 TIP3     6312     TIP3     H1       HT       0.417000       1.00800           0
     27512 TIP3     6312     TIP3     H2       HT       0.417000       1.00800           0
     27513 TIP3     6313     TIP3     OH2      OT      -0.834000       15.9994           0
     27514 TIP3     6313     TIP3     H1       HT       0.417000       1.00800           0
     27515 TIP3     6313     TIP3     H2       HT       0.417000       1.00800           0
     27516 TIP3     6314     TIP3     OH2      OT      -0.834000       15.9994           0
     27517 TIP3     6314     TIP3     H1       HT       0.417000       1.00800           0
     27518 TIP3     6314     TIP3     H2       HT       0.417000       1.00800           0
     27519 TIP3     6315     TIP3     OH2      OT      -0.834000       15.9994           0
     27520 TIP3     6315     TIP3     H1       HT       0.417000       1.00800           0
     27521 TIP3     6315     TIP3     H2       HT       0.417000       1.00800           0
     27522 TIP3     6316     TIP3     OH2      OT      -0.834000       15.9994           0
     27523 TIP3     6316     TIP3     H1       HT       0.417000       1.00800           0
     27524 TIP3     6316     TIP3     H2       HT       0.417000       1.00800           0
     27525 TIP3     6317     TIP3     OH2      OT      -0.834000       15.9994           0
     27526 TIP3     6317     TIP3     H1       HT       0.417000       1.00800           0
     27527 TIP3     6317     TIP3     H2       HT       0.417000       1.00800           0
     27528 TIP3     6318     TIP3     OH2      OT      -0.834000       15.9994           0
     27529 TIP3     6318     TIP3     H1       HT       0.417000       1.00800           0
     27530 TIP3     6318     TIP3     H2       HT       0.417000       1.00800           0
     27531 TIP3     6319     TIP3     OH2      OT      -0.834000       15.9994           0
     27532 TIP3     6319     TIP3     H1       HT       0.417000       1.00800           0
     27533 TIP3     6319     TIP3     H2       HT       0.417000       1.00800           0
     27534 TIP3     6320     TIP3     OH2      OT      -0.834000       15.9994           0
     27535 TIP3     6320     TIP3     H1       HT       0.417000       1.00800           0
     27536 TIP3     6320     TIP3     H2       HT       0.417000       1.00800           0
     27537 TIP3     6321     TIP3     OH2      OT      -0.834000       15.9994           0
     27538 TIP3     6321     TIP3     H1       HT       0.417000       1.00800           0
     27539 TIP3     6321     TIP3     H2       HT       0.417000       1.00800           0
     27540 TIP3     6322     TIP3     OH2      OT      -0.834000       15.9994           0
     27541 TIP3     6322     TIP3     H1       HT       0.417000       1.00800           0
     27542 TIP3     6322     TIP3     H2       HT       0.417000       1.00800           0
     27543 TIP3     6323     TIP3     OH2      OT      -0.834000       15.9994           0
     27544 TIP3     6323     TIP3     H1       HT       0.417000       1.00800           0
     27545 TIP3     6323     TIP3     H2       HT       0.417000       1.00800           0
     27546 TIP3     6324     TIP3     OH2      OT      -0.834000       15.9994           0
     27547 TIP3     6324     TIP3     H1       HT       0.417000       1.00800           0
     27548 TIP3     6324     TIP3     H2       HT       0.417000       1.00800           0
     27549 TIP3     6325     TIP3     OH2      OT      -0.834000       15.9994           0
     27550 TIP3     6325     TIP3     H1       HT       0.417000       1.00800           0
     27551 TIP3     6325     TIP3     H2       HT       0.417000       1.00800           0
     27552 TIP3     6326     TIP3     OH2      OT      -0.834000       15.9994           0
     27553 TIP3     6326     TIP3     H1       HT       0.417000       1.00800           0
     27554 TIP3     6326     TIP3     H2       HT       0.417000       1.00800           0
     27555 TIP3     6327     TIP3     OH2      OT      -0.834000       15.9994           0
     27556 TIP3     6327     TIP3     H1       HT       0.417000       1.00800           0
     27557 TIP3     6327     TIP3     H2       HT       0.417000       1.00800           0
     27558 TIP3     6328     TIP3     OH2      OT      -0.834000       15.9994           0
     27559 TIP3     6328     TIP3     H1       HT       0.417000       1.00800           0
     27560 TIP3     6328     TIP3     H2       HT       0.417000       1.00800           0
     27561 TIP3     6329     TIP3     OH2      OT      -0.834000       15.9994           0
     27562 TIP3     6329     TIP3     H1       HT       0.417000       1.00800           0
     27563 TIP3     6329     TIP3     H2       HT       0.417000       1.00800           0
     27564 TIP3     6330     TIP3     OH2      OT      -0.834000       15.9994           0
     27565 TIP3     6330     TIP3     H1       HT       0.417000       1.00800           0
     27566 TIP3     6330     TIP3     H2       HT       0.417000       1.00800           0
     27567 TIP3     6331     TIP3     OH2      OT      -0.834000       15.9994           0
     27568 TIP3     6331     TIP3     H1       HT       0.417000       1.00800           0
     27569 TIP3     6331     TIP3     H2       HT       0.417000       1.00800           0
     27570 TIP3     6332     TIP3     OH2      OT      -0.834000       15.9994           0
     27571 TIP3     6332     TIP3     H1       HT       0.417000       1.00800           0
     27572 TIP3     6332     TIP3     H2       HT       0.417000       1.00800           0
     27573 TIP3     6333     TIP3     OH2      OT      -0.834000       15.9994           0
     27574 TIP3     6333     TIP3     H1       HT       0.417000       1.00800           0
     27575 TIP3     6333     TIP3     H2       HT       0.417000       1.00800           0
     27576 TIP3     6334     TIP3     OH2      OT      -0.834000       15.9994           0
     27577 TIP3     6334     TIP3     H1       HT       0.417000       1.00800           0
     27578 TIP3     6334     TIP3     H2       HT       0.417000       1.00800           0
     27579 TIP3     6335     TIP3     OH2      OT      -0.834000       15.9994           0
     27580 TIP3     6335     TIP3     H1       HT       0.417000       1.00800           0
     27581 TIP3     6335     TIP3     H2       HT       0.417000       1.00800           0
     27582 TIP3     6336     TIP3     OH2      OT      -0.834000       15.9994           0
     27583 TIP3     6336     TIP3     H1       HT       0.417000       1.00800           0
     27584 TIP3     6336     TIP3     H2       HT       0.417000       1.00800           0
     27585 TIP3     6337     TIP3     OH2      OT      -0.834000       15.9994           0
     27586 TIP3     6337     TIP3     H1       HT       0.417000       1.00800           0
     27587 TIP3     6337     TIP3     H2       HT       0.417000       1.00800           0
     27588 TIP3     6338     TIP3     OH2      OT      -0.834000       15.9994           0
     27589 TIP3     6338     TIP3     H1       HT       0.417000       1.00800           0
     27590 TIP3     6338     TIP3     H2       HT       0.417000       1.00800           0
     27591 TIP3     6339     TIP3     OH2      OT      -0.834000       15.9994           0
     27592 TIP3     6339     TIP3     H1       HT       0.417000       1.00800           0
     27593 TIP3     6339     TIP3     H2       HT       0.417000       1.00800           0
     27594 TIP3     6340     TIP3     OH2      OT      -0.834000       15.9994           0
     27595 TIP3     6340     TIP3     H1       HT       0.417000       1.00800           0
     27596 TIP3     6340     TIP3     H2       HT       0.417000       1.00800           0
     27597 TIP3     6341     TIP3     OH2      OT      -0.834000       15.9994           0
     27598 TIP3     6341     TIP3     H1       HT       0.417000       1.00800           0
     27599 TIP3     6341     TIP3     H2       HT       0.417000       1.00800           0
     27600 TIP3     6342     TIP3     OH2      OT      -0.834000       15.9994           0
     27601 TIP3     6342     TIP3     H1       HT       0.417000       1.00800           0
     27602 TIP3     6342     TIP3     H2       HT       0.417000       1.00800           0
     27603 TIP3     6343     TIP3     OH2      OT      -0.834000       15.9994           0
     27604 TIP3     6343     TIP3     H1       HT       0.417000       1.00800           0
     27605 TIP3     6343     TIP3     H2       HT       0.417000       1.00800           0
     27606 TIP3     6344     TIP3     OH2      OT      -0.834000       15.9994           0
     27607 TIP3     6344     TIP3     H1       HT       0.417000       1.00800           0
     27608 TIP3     6344     TIP3     H2       HT       0.417000       1.00800           0
     27609 TIP3     6345     TIP3     OH2      OT      -0.834000       15.9994           0
     27610 TIP3     6345     TIP3     H1       HT       0.417000       1.00800           0
     27611 TIP3     6345     TIP3     H2       HT       0.417000       1.00800           0
     27612 TIP3     6346     TIP3     OH2      OT      -0.834000       15.9994           0
     27613 TIP3     6346     TIP3     H1       HT       0.417000       1.00800           0
     27614 TIP3     6346     TIP3     H2       HT       0.417000       1.00800           0
     27615 TIP3     6347     TIP3     OH2      OT      -0.834000       15.9994           0
     27616 TIP3     6347     TIP3     H1       HT       0.417000       1.00800           0
     27617 TIP3     6347     TIP3     H2       HT       0.417000       1.00800           0
     27618 TIP3     6348     TIP3     OH2      OT      -0.834000       15.9994           0
     27619 TIP3     6348     TIP3     H1       HT       0.417000       1.00800           0
     27620 TIP3     6348     TIP3     H2       HT       0.417000       1.00800           0
     27621 TIP3     6349     TIP3     OH2      OT      -0.834000       15.9994           0
     27622 TIP3     6349     TIP3     H1       HT       0.417000       1.00800           0
     27623 TIP3     6349     TIP3     H2       HT       0.417000       1.00800           0
     27624 TIP3     6350     TIP3     OH2      OT      -0.834000       15.9994           0
     27625 TIP3     6350     TIP3     H1       HT       0.417000       1.00800           0
     27626 TIP3     6350     TIP3     H2       HT       0.417000       1.00800           0
     27627 TIP3     6351     TIP3     OH2      OT      -0.834000       15.9994           0
     27628 TIP3     6351     TIP3     H1       HT       0.417000       1.00800           0
     27629 TIP3     6351     TIP3     H2       HT       0.417000       1.00800           0
     27630 TIP3     6352     TIP3     OH2      OT      -0.834000       15.9994           0
     27631 TIP3     6352     TIP3     H1       HT       0.417000       1.00800           0
     27632 TIP3     6352     TIP3     H2       HT       0.417000       1.00800           0
     27633 TIP3     6353     TIP3     OH2      OT      -0.834000       15.9994           0
     27634 TIP3     6353     TIP3     H1       HT       0.417000       1.00800           0
     27635 TIP3     6353     TIP3     H2       HT       0.417000       1.00800           0
     27636 TIP3     6354     TIP3     OH2      OT      -0.834000       15.9994           0
     27637 TIP3     6354     TIP3     H1       HT       0.417000       1.00800           0
     27638 TIP3     6354     TIP3     H2       HT       0.417000       1.00800           0
     27639 TIP3     6355     TIP3     OH2      OT      -0.834000       15.9994           0
     27640 TIP3     6355     TIP3     H1       HT       0.417000       1.00800           0
     27641 TIP3     6355     TIP3     H2       HT       0.417000       1.00800           0
     27642 TIP3     6356     TIP3     OH2      OT      -0.834000       15.9994           0
     27643 TIP3     6356     TIP3     H1       HT       0.417000       1.00800           0
     27644 TIP3     6356     TIP3     H2       HT       0.417000       1.00800           0
     27645 TIP3     6357     TIP3     OH2      OT      -0.834000       15.9994           0
     27646 TIP3     6357     TIP3     H1       HT       0.417000       1.00800           0
     27647 TIP3     6357     TIP3     H2       HT       0.417000       1.00800           0
     27648 TIP3     6358     TIP3     OH2      OT      -0.834000       15.9994           0
     27649 TIP3     6358     TIP3     H1       HT       0.417000       1.00800           0
     27650 TIP3     6358     TIP3     H2       HT       0.417000       1.00800           0
     27651 TIP3     6359     TIP3     OH2      OT      -0.834000       15.9994           0
     27652 TIP3     6359     TIP3     H1       HT       0.417000       1.00800           0
     27653 TIP3     6359     TIP3     H2       HT       0.417000       1.00800           0
     27654 TIP3     6360     TIP3     OH2      OT      -0.834000       15.9994           0
     27655 TIP3     6360     TIP3     H1       HT       0.417000       1.00800           0
     27656 TIP3     6360     TIP3     H2       HT       0.417000       1.00800           0
     27657 TIP3     6361     TIP3     OH2      OT      -0.834000       15.9994           0
     27658 TIP3     6361     TIP3     H1       HT       0.417000       1.00800           0
     27659 TIP3     6361     TIP3     H2       HT       0.417000       1.00800           0
     27660 TIP3     6362     TIP3     OH2      OT      -0.834000       15.9994           0
     27661 TIP3     6362     TIP3     H1       HT       0.417000       1.00800           0
     27662 TIP3     6362     TIP3     H2       HT       0.417000       1.00800           0
     27663 TIP3     6363     TIP3     OH2      OT      -0.834000       15.9994           0
     27664 TIP3     6363     TIP3     H1       HT       0.417000       1.00800           0
     27665 TIP3     6363     TIP3     H2       HT       0.417000       1.00800           0
     27666 TIP3     6364     TIP3     OH2      OT      -0.834000       15.9994           0
     27667 TIP3     6364     TIP3     H1       HT       0.417000       1.00800           0
     27668 TIP3     6364     TIP3     H2       HT       0.417000       1.00800           0
     27669 TIP3     6365     TIP3     OH2      OT      -0.834000       15.9994           0
     27670 TIP3     6365     TIP3     H1       HT       0.417000       1.00800           0
     27671 TIP3     6365     TIP3     H2       HT       0.417000       1.00800           0
     27672 TIP3     6366     TIP3     OH2      OT      -0.834000       15.9994           0
     27673 TIP3     6366     TIP3     H1       HT       0.417000       1.00800           0
     27674 TIP3     6366     TIP3     H2       HT       0.417000       1.00800           0
     27675 TIP3     6367     TIP3     OH2      OT      -0.834000       15.9994           0
     27676 TIP3     6367     TIP3     H1       HT       0.417000       1.00800           0
     27677 TIP3     6367     TIP3     H2       HT       0.417000       1.00800           0
     27678 TIP3     6368     TIP3     OH2      OT      -0.834000       15.9994           0
     27679 TIP3     6368     TIP3     H1       HT       0.417000       1.00800           0
     27680 TIP3     6368     TIP3     H2       HT       0.417000       1.00800           0
     27681 TIP3     6369     TIP3     OH2      OT      -0.834000       15.9994           0
     27682 TIP3     6369     TIP3     H1       HT       0.417000       1.00800           0
     27683 TIP3     6369     TIP3     H2       HT       0.417000       1.00800           0
     27684 TIP3     6370     TIP3     OH2      OT      -0.834000       15.9994           0
     27685 TIP3     6370     TIP3     H1       HT       0.417000       1.00800           0
     27686 TIP3     6370     TIP3     H2       HT       0.417000       1.00800           0
     27687 TIP3     6371     TIP3     OH2      OT      -0.834000       15.9994           0
     27688 TIP3     6371     TIP3     H1       HT       0.417000       1.00800           0
     27689 TIP3     6371     TIP3     H2       HT       0.417000       1.00800           0
     27690 TIP3     6372     TIP3     OH2      OT      -0.834000       15.9994           0
     27691 TIP3     6372     TIP3     H1       HT       0.417000       1.00800           0
     27692 TIP3     6372     TIP3     H2       HT       0.417000       1.00800           0
     27693 TIP3     6373     TIP3     OH2      OT      -0.834000       15.9994           0
     27694 TIP3     6373     TIP3     H1       HT       0.417000       1.00800           0
     27695 TIP3     6373     TIP3     H2       HT       0.417000       1.00800           0
     27696 TIP3     6374     TIP3     OH2      OT      -0.834000       15.9994           0
     27697 TIP3     6374     TIP3     H1       HT       0.417000       1.00800           0
     27698 TIP3     6374     TIP3     H2       HT       0.417000       1.00800           0
     27699 TIP3     6375     TIP3     OH2      OT      -0.834000       15.9994           0
     27700 TIP3     6375     TIP3     H1       HT       0.417000       1.00800           0
     27701 TIP3     6375     TIP3     H2       HT       0.417000       1.00800           0
     27702 TIP3     6376     TIP3     OH2      OT      -0.834000       15.9994           0
     27703 TIP3     6376     TIP3     H1       HT       0.417000       1.00800           0
     27704 TIP3     6376     TIP3     H2       HT       0.417000       1.00800           0
     27705 TIP3     6377     TIP3     OH2      OT      -0.834000       15.9994           0
     27706 TIP3     6377     TIP3     H1       HT       0.417000       1.00800           0
     27707 TIP3     6377     TIP3     H2       HT       0.417000       1.00800           0
     27708 TIP3     6378     TIP3     OH2      OT      -0.834000       15.9994           0
     27709 TIP3     6378     TIP3     H1       HT       0.417000       1.00800           0
     27710 TIP3     6378     TIP3     H2       HT       0.417000       1.00800           0
     27711 TIP3     6379     TIP3     OH2      OT      -0.834000       15.9994           0
     27712 TIP3     6379     TIP3     H1       HT       0.417000       1.00800           0
     27713 TIP3     6379     TIP3     H2       HT       0.417000       1.00800           0
     27714 TIP3     6380     TIP3     OH2      OT      -0.834000       15.9994           0
     27715 TIP3     6380     TIP3     H1       HT       0.417000       1.00800           0
     27716 TIP3     6380     TIP3     H2       HT       0.417000       1.00800           0
     27717 TIP3     6381     TIP3     OH2      OT      -0.834000       15.9994           0
     27718 TIP3     6381     TIP3     H1       HT       0.417000       1.00800           0
     27719 TIP3     6381     TIP3     H2       HT       0.417000       1.00800           0
     27720 TIP3     6382     TIP3     OH2      OT      -0.834000       15.9994           0
     27721 TIP3     6382     TIP3     H1       HT       0.417000       1.00800           0
     27722 TIP3     6382     TIP3     H2       HT       0.417000       1.00800           0
     27723 TIP3     6383     TIP3     OH2      OT      -0.834000       15.9994           0
     27724 TIP3     6383     TIP3     H1       HT       0.417000       1.00800           0
     27725 TIP3     6383     TIP3     H2       HT       0.417000       1.00800           0
     27726 TIP3     6384     TIP3     OH2      OT      -0.834000       15.9994           0
     27727 TIP3     6384     TIP3     H1       HT       0.417000       1.00800           0
     27728 TIP3     6384     TIP3     H2       HT       0.417000       1.00800           0
     27729 TIP3     6385     TIP3     OH2      OT      -0.834000       15.9994           0
     27730 TIP3     6385     TIP3     H1       HT       0.417000       1.00800           0
     27731 TIP3     6385     TIP3     H2       HT       0.417000       1.00800           0
     27732 TIP3     6386     TIP3     OH2      OT      -0.834000       15.9994           0
     27733 TIP3     6386     TIP3     H1       HT       0.417000       1.00800           0
     27734 TIP3     6386     TIP3     H2       HT       0.417000       1.00800           0
     27735 TIP3     6387     TIP3     OH2      OT      -0.834000       15.9994           0
     27736 TIP3     6387     TIP3     H1       HT       0.417000       1.00800           0
     27737 TIP3     6387     TIP3     H2       HT       0.417000       1.00800           0
     27738 TIP3     6388     TIP3     OH2      OT      -0.834000       15.9994           0
     27739 TIP3     6388     TIP3     H1       HT       0.417000       1.00800           0
     27740 TIP3     6388     TIP3     H2       HT       0.417000       1.00800           0
     27741 TIP3     6389     TIP3     OH2      OT      -0.834000       15.9994           0
     27742 TIP3     6389     TIP3     H1       HT       0.417000       1.00800           0
     27743 TIP3     6389     TIP3     H2       HT       0.417000       1.00800           0
     27744 TIP3     6390     TIP3     OH2      OT      -0.834000       15.9994           0
     27745 TIP3     6390     TIP3     H1       HT       0.417000       1.00800           0
     27746 TIP3     6390     TIP3     H2       HT       0.417000       1.00800           0
     27747 TIP3     6391     TIP3     OH2      OT      -0.834000       15.9994           0
     27748 TIP3     6391     TIP3     H1       HT       0.417000       1.00800           0
     27749 TIP3     6391     TIP3     H2       HT       0.417000       1.00800           0
     27750 TIP3     6392     TIP3     OH2      OT      -0.834000       15.9994           0
     27751 TIP3     6392     TIP3     H1       HT       0.417000       1.00800           0
     27752 TIP3     6392     TIP3     H2       HT       0.417000       1.00800           0
     27753 TIP3     6393     TIP3     OH2      OT      -0.834000       15.9994           0
     27754 TIP3     6393     TIP3     H1       HT       0.417000       1.00800           0
     27755 TIP3     6393     TIP3     H2       HT       0.417000       1.00800           0
     27756 TIP3     6394     TIP3     OH2      OT      -0.834000       15.9994           0
     27757 TIP3     6394     TIP3     H1       HT       0.417000       1.00800           0
     27758 TIP3     6394     TIP3     H2       HT       0.417000       1.00800           0
     27759 TIP3     6395     TIP3     OH2      OT      -0.834000       15.9994           0
     27760 TIP3     6395     TIP3     H1       HT       0.417000       1.00800           0
     27761 TIP3     6395     TIP3     H2       HT       0.417000       1.00800           0
     27762 TIP3     6396     TIP3     OH2      OT      -0.834000       15.9994           0
     27763 TIP3     6396     TIP3     H1       HT       0.417000       1.00800           0
     27764 TIP3     6396     TIP3     H2       HT       0.417000       1.00800           0
     27765 TIP3     6397     TIP3     OH2      OT      -0.834000       15.9994           0
     27766 TIP3     6397     TIP3     H1       HT       0.417000       1.00800           0
     27767 TIP3     6397     TIP3     H2       HT       0.417000       1.00800           0
     27768 TIP3     6398     TIP3     OH2      OT      -0.834000       15.9994           0
     27769 TIP3     6398     TIP3     H1       HT       0.417000       1.00800           0
     27770 TIP3     6398     TIP3     H2       HT       0.417000       1.00800           0
     27771 TIP3     6399     TIP3     OH2      OT      -0.834000       15.9994           0
     27772 TIP3     6399     TIP3     H1       HT       0.417000       1.00800           0
     27773 TIP3     6399     TIP3     H2       HT       0.417000       1.00800           0
     27774 TIP3     6400     TIP3     OH2      OT      -0.834000       15.9994           0
     27775 TIP3     6400     TIP3     H1       HT       0.417000       1.00800           0
     27776 TIP3     6400     TIP3     H2       HT       0.417000       1.00800           0
     27777 TIP3     6401     TIP3     OH2      OT      -0.834000       15.9994           0
     27778 TIP3     6401     TIP3     H1       HT       0.417000       1.00800           0
     27779 TIP3     6401     TIP3     H2       HT       0.417000       1.00800           0
     27780 TIP3     6402     TIP3     OH2      OT      -0.834000       15.9994           0
     27781 TIP3     6402     TIP3     H1       HT       0.417000       1.00800           0
     27782 TIP3     6402     TIP3     H2       HT       0.417000       1.00800           0
     27783 TIP3     6403     TIP3     OH2      OT      -0.834000       15.9994           0
     27784 TIP3     6403     TIP3     H1       HT       0.417000       1.00800           0
     27785 TIP3     6403     TIP3     H2       HT       0.417000       1.00800           0
     27786 TIP3     6404     TIP3     OH2      OT      -0.834000       15.9994           0
     27787 TIP3     6404     TIP3     H1       HT       0.417000       1.00800           0
     27788 TIP3     6404     TIP3     H2       HT       0.417000       1.00800           0
     27789 TIP3     6405     TIP3     OH2      OT      -0.834000       15.9994           0
     27790 TIP3     6405     TIP3     H1       HT       0.417000       1.00800           0
     27791 TIP3     6405     TIP3     H2       HT       0.417000       1.00800           0
     27792 TIP3     6406     TIP3     OH2      OT      -0.834000       15.9994           0
     27793 TIP3     6406     TIP3     H1       HT       0.417000       1.00800           0
     27794 TIP3     6406     TIP3     H2       HT       0.417000       1.00800           0
     27795 TIP3     6407     TIP3     OH2      OT      -0.834000       15.9994           0
     27796 TIP3     6407     TIP3     H1       HT       0.417000       1.00800           0
     27797 TIP3     6407     TIP3     H2       HT       0.417000       1.00800           0
     27798 TIP3     6408     TIP3     OH2      OT      -0.834000       15.9994           0
     27799 TIP3     6408     TIP3     H1       HT       0.417000       1.00800           0
     27800 TIP3     6408     TIP3     H2       HT       0.417000       1.00800           0
     27801 TIP3     6409     TIP3     OH2      OT      -0.834000       15.9994           0
     27802 TIP3     6409     TIP3     H1       HT       0.417000       1.00800           0
     27803 TIP3     6409     TIP3     H2       HT       0.417000       1.00800           0
     27804 TIP3     6410     TIP3     OH2      OT      -0.834000       15.9994           0
     27805 TIP3     6410     TIP3     H1       HT       0.417000       1.00800           0
     27806 TIP3     6410     TIP3     H2       HT       0.417000       1.00800           0
     27807 TIP3     6411     TIP3     OH2      OT      -0.834000       15.9994           0
     27808 TIP3     6411     TIP3     H1       HT       0.417000       1.00800           0
     27809 TIP3     6411     TIP3     H2       HT       0.417000       1.00800           0
     27810 TIP3     6412     TIP3     OH2      OT      -0.834000       15.9994           0
     27811 TIP3     6412     TIP3     H1       HT       0.417000       1.00800           0
     27812 TIP3     6412     TIP3     H2       HT       0.417000       1.00800           0
     27813 TIP3     6413     TIP3     OH2      OT      -0.834000       15.9994           0
     27814 TIP3     6413     TIP3     H1       HT       0.417000       1.00800           0
     27815 TIP3     6413     TIP3     H2       HT       0.417000       1.00800           0
     27816 TIP3     6414     TIP3     OH2      OT      -0.834000       15.9994           0
     27817 TIP3     6414     TIP3     H1       HT       0.417000       1.00800           0
     27818 TIP3     6414     TIP3     H2       HT       0.417000       1.00800           0
     27819 TIP3     6415     TIP3     OH2      OT      -0.834000       15.9994           0
     27820 TIP3     6415     TIP3     H1       HT       0.417000       1.00800           0
     27821 TIP3     6415     TIP3     H2       HT       0.417000       1.00800           0
     27822 TIP3     6416     TIP3     OH2      OT      -0.834000       15.9994           0
     27823 TIP3     6416     TIP3     H1       HT       0.417000       1.00800           0
     27824 TIP3     6416     TIP3     H2       HT       0.417000       1.00800           0
     27825 TIP3     6417     TIP3     OH2      OT      -0.834000       15.9994           0
     27826 TIP3     6417     TIP3     H1       HT       0.417000       1.00800           0
     27827 TIP3     6417     TIP3     H2       HT       0.417000       1.00800           0
     27828 TIP3     6418     TIP3     OH2      OT      -0.834000       15.9994           0
     27829 TIP3     6418     TIP3     H1       HT       0.417000       1.00800           0
     27830 TIP3     6418     TIP3     H2       HT       0.417000       1.00800           0
     27831 TIP3     6419     TIP3     OH2      OT      -0.834000       15.9994           0
     27832 TIP3     6419     TIP3     H1       HT       0.417000       1.00800           0
     27833 TIP3     6419     TIP3     H2       HT       0.417000       1.00800           0
     27834 TIP3     6420     TIP3     OH2      OT      -0.834000       15.9994           0
     27835 TIP3     6420     TIP3     H1       HT       0.417000       1.00800           0
     27836 TIP3     6420     TIP3     H2       HT       0.417000       1.00800           0
     27837 TIP3     6421     TIP3     OH2      OT      -0.834000       15.9994           0
     27838 TIP3     6421     TIP3     H1       HT       0.417000       1.00800           0
     27839 TIP3     6421     TIP3     H2       HT       0.417000       1.00800           0
     27840 TIP3     6422     TIP3     OH2      OT      -0.834000       15.9994           0
     27841 TIP3     6422     TIP3     H1       HT       0.417000       1.00800           0
     27842 TIP3     6422     TIP3     H2       HT       0.417000       1.00800           0
     27843 TIP3     6423     TIP3     OH2      OT      -0.834000       15.9994           0
     27844 TIP3     6423     TIP3     H1       HT       0.417000       1.00800           0
     27845 TIP3     6423     TIP3     H2       HT       0.417000       1.00800           0
     27846 TIP3     6424     TIP3     OH2      OT      -0.834000       15.9994           0
     27847 TIP3     6424     TIP3     H1       HT       0.417000       1.00800           0
     27848 TIP3     6424     TIP3     H2       HT       0.417000       1.00800           0
     27849 TIP3     6425     TIP3     OH2      OT      -0.834000       15.9994           0
     27850 TIP3     6425     TIP3     H1       HT       0.417000       1.00800           0
     27851 TIP3     6425     TIP3     H2       HT       0.417000       1.00800           0
     27852 TIP3     6426     TIP3     OH2      OT      -0.834000       15.9994           0
     27853 TIP3     6426     TIP3     H1       HT       0.417000       1.00800           0
     27854 TIP3     6426     TIP3     H2       HT       0.417000       1.00800           0
     27855 TIP3     6427     TIP3     OH2      OT      -0.834000       15.9994           0
     27856 TIP3     6427     TIP3     H1       HT       0.417000       1.00800           0
     27857 TIP3     6427     TIP3     H2       HT       0.417000       1.00800           0
     27858 TIP3     6428     TIP3     OH2      OT      -0.834000       15.9994           0
     27859 TIP3     6428     TIP3     H1       HT       0.417000       1.00800           0
     27860 TIP3     6428     TIP3     H2       HT       0.417000       1.00800           0
     27861 TIP3     6429     TIP3     OH2      OT      -0.834000       15.9994           0
     27862 TIP3     6429     TIP3     H1       HT       0.417000       1.00800           0
     27863 TIP3     6429     TIP3     H2       HT       0.417000       1.00800           0
     27864 TIP3     6430     TIP3     OH2      OT      -0.834000       15.9994           0
     27865 TIP3     6430     TIP3     H1       HT       0.417000       1.00800           0
     27866 TIP3     6430     TIP3     H2       HT       0.417000       1.00800           0
     27867 TIP3     6431     TIP3     OH2      OT      -0.834000       15.9994           0
     27868 TIP3     6431     TIP3     H1       HT       0.417000       1.00800           0
     27869 TIP3     6431     TIP3     H2       HT       0.417000       1.00800           0
     27870 TIP3     6432     TIP3     OH2      OT      -0.834000       15.9994           0
     27871 TIP3     6432     TIP3     H1       HT       0.417000       1.00800           0
     27872 TIP3     6432     TIP3     H2       HT       0.417000       1.00800           0
     27873 TIP3     6433     TIP3     OH2      OT      -0.834000       15.9994           0
     27874 TIP3     6433     TIP3     H1       HT       0.417000       1.00800           0
     27875 TIP3     6433     TIP3     H2       HT       0.417000       1.00800           0
     27876 TIP3     6434     TIP3     OH2      OT      -0.834000       15.9994           0
     27877 TIP3     6434     TIP3     H1       HT       0.417000       1.00800           0
     27878 TIP3     6434     TIP3     H2       HT       0.417000       1.00800           0
     27879 TIP3     6435     TIP3     OH2      OT      -0.834000       15.9994           0
     27880 TIP3     6435     TIP3     H1       HT       0.417000       1.00800           0
     27881 TIP3     6435     TIP3     H2       HT       0.417000       1.00800           0
     27882 TIP3     6436     TIP3     OH2      OT      -0.834000       15.9994           0
     27883 TIP3     6436     TIP3     H1       HT       0.417000       1.00800           0
     27884 TIP3     6436     TIP3     H2       HT       0.417000       1.00800           0
     27885 TIP3     6437     TIP3     OH2      OT      -0.834000       15.9994           0
     27886 TIP3     6437     TIP3     H1       HT       0.417000       1.00800           0
     27887 TIP3     6437     TIP3     H2       HT       0.417000       1.00800           0
     27888 TIP3     6438     TIP3     OH2      OT      -0.834000       15.9994           0
     27889 TIP3     6438     TIP3     H1       HT       0.417000       1.00800           0
     27890 TIP3     6438     TIP3     H2       HT       0.417000       1.00800           0
     27891 TIP3     6439     TIP3     OH2      OT      -0.834000       15.9994           0
     27892 TIP3     6439     TIP3     H1       HT       0.417000       1.00800           0
     27893 TIP3     6439     TIP3     H2       HT       0.417000       1.00800           0
     27894 TIP3     6440     TIP3     OH2      OT      -0.834000       15.9994           0
     27895 TIP3     6440     TIP3     H1       HT       0.417000       1.00800           0
     27896 TIP3     6440     TIP3     H2       HT       0.417000       1.00800           0
     27897 TIP3     6441     TIP3     OH2      OT      -0.834000       15.9994           0
     27898 TIP3     6441     TIP3     H1       HT       0.417000       1.00800           0
     27899 TIP3     6441     TIP3     H2       HT       0.417000       1.00800           0
     27900 TIP3     6442     TIP3     OH2      OT      -0.834000       15.9994           0
     27901 TIP3     6442     TIP3     H1       HT       0.417000       1.00800           0
     27902 TIP3     6442     TIP3     H2       HT       0.417000       1.00800           0
     27903 TIP3     6443     TIP3     OH2      OT      -0.834000       15.9994           0
     27904 TIP3     6443     TIP3     H1       HT       0.417000       1.00800           0
     27905 TIP3     6443     TIP3     H2       HT       0.417000       1.00800           0
     27906 TIP3     6444     TIP3     OH2      OT      -0.834000       15.9994           0
     27907 TIP3     6444     TIP3     H1       HT       0.417000       1.00800           0
     27908 TIP3     6444     TIP3     H2       HT       0.417000       1.00800           0
     27909 TIP3     6445     TIP3     OH2      OT      -0.834000       15.9994           0
     27910 TIP3     6445     TIP3     H1       HT       0.417000       1.00800           0
     27911 TIP3     6445     TIP3     H2       HT       0.417000       1.00800           0
     27912 TIP3     6446     TIP3     OH2      OT      -0.834000       15.9994           0
     27913 TIP3     6446     TIP3     H1       HT       0.417000       1.00800           0
     27914 TIP3     6446     TIP3     H2       HT       0.417000       1.00800           0
     27915 TIP3     6447     TIP3     OH2      OT      -0.834000       15.9994           0
     27916 TIP3     6447     TIP3     H1       HT       0.417000       1.00800           0
     27917 TIP3     6447     TIP3     H2       HT       0.417000       1.00800           0
     27918 TIP3     6448     TIP3     OH2      OT      -0.834000       15.9994           0
     27919 TIP3     6448     TIP3     H1       HT       0.417000       1.00800           0
     27920 TIP3     6448     TIP3     H2       HT       0.417000       1.00800           0
     27921 TIP3     6449     TIP3     OH2      OT      -0.834000       15.9994           0
     27922 TIP3     6449     TIP3     H1       HT       0.417000       1.00800           0
     27923 TIP3     6449     TIP3     H2       HT       0.417000       1.00800           0
     27924 TIP3     6450     TIP3     OH2      OT      -0.834000       15.9994           0
     27925 TIP3     6450     TIP3     H1       HT       0.417000       1.00800           0
     27926 TIP3     6450     TIP3     H2       HT       0.417000       1.00800           0
     27927 TIP3     6451     TIP3     OH2      OT      -0.834000       15.9994           0
     27928 TIP3     6451     TIP3     H1       HT       0.417000       1.00800           0
     27929 TIP3     6451     TIP3     H2       HT       0.417000       1.00800           0
     27930 TIP3     6452     TIP3     OH2      OT      -0.834000       15.9994           0
     27931 TIP3     6452     TIP3     H1       HT       0.417000       1.00800           0
     27932 TIP3     6452     TIP3     H2       HT       0.417000       1.00800           0
     27933 TIP3     6453     TIP3     OH2      OT      -0.834000       15.9994           0
     27934 TIP3     6453     TIP3     H1       HT       0.417000       1.00800           0
     27935 TIP3     6453     TIP3     H2       HT       0.417000       1.00800           0
     27936 TIP3     6454     TIP3     OH2      OT      -0.834000       15.9994           0
     27937 TIP3     6454     TIP3     H1       HT       0.417000       1.00800           0
     27938 TIP3     6454     TIP3     H2       HT       0.417000       1.00800           0
     27939 TIP3     6455     TIP3     OH2      OT      -0.834000       15.9994           0
     27940 TIP3     6455     TIP3     H1       HT       0.417000       1.00800           0
     27941 TIP3     6455     TIP3     H2       HT       0.417000       1.00800           0
     27942 TIP3     6456     TIP3     OH2      OT      -0.834000       15.9994           0
     27943 TIP3     6456     TIP3     H1       HT       0.417000       1.00800           0
     27944 TIP3     6456     TIP3     H2       HT       0.417000       1.00800           0
     27945 TIP3     6457     TIP3     OH2      OT      -0.834000       15.9994           0
     27946 TIP3     6457     TIP3     H1       HT       0.417000       1.00800           0
     27947 TIP3     6457     TIP3     H2       HT       0.417000       1.00800           0
     27948 TIP3     6458     TIP3     OH2      OT      -0.834000       15.9994           0
     27949 TIP3     6458     TIP3     H1       HT       0.417000       1.00800           0
     27950 TIP3     6458     TIP3     H2       HT       0.417000       1.00800           0
     27951 TIP3     6459     TIP3     OH2      OT      -0.834000       15.9994           0
     27952 TIP3     6459     TIP3     H1       HT       0.417000       1.00800           0
     27953 TIP3     6459     TIP3     H2       HT       0.417000       1.00800           0
     27954 TIP3     6460     TIP3     OH2      OT      -0.834000       15.9994           0
     27955 TIP3     6460     TIP3     H1       HT       0.417000       1.00800           0
     27956 TIP3     6460     TIP3     H2       HT       0.417000       1.00800           0
     27957 TIP3     6461     TIP3     OH2      OT      -0.834000       15.9994           0
     27958 TIP3     6461     TIP3     H1       HT       0.417000       1.00800           0
     27959 TIP3     6461     TIP3     H2       HT       0.417000       1.00800           0
     27960 TIP3     6462     TIP3     OH2      OT      -0.834000       15.9994           0
     27961 TIP3     6462     TIP3     H1       HT       0.417000       1.00800           0
     27962 TIP3     6462     TIP3     H2       HT       0.417000       1.00800           0
     27963 TIP3     6463     TIP3     OH2      OT      -0.834000       15.9994           0
     27964 TIP3     6463     TIP3     H1       HT       0.417000       1.00800           0
     27965 TIP3     6463     TIP3     H2       HT       0.417000       1.00800           0
     27966 TIP3     6464     TIP3     OH2      OT      -0.834000       15.9994           0
     27967 TIP3     6464     TIP3     H1       HT       0.417000       1.00800           0
     27968 TIP3     6464     TIP3     H2       HT       0.417000       1.00800           0
     27969 TIP3     6465     TIP3     OH2      OT      -0.834000       15.9994           0
     27970 TIP3     6465     TIP3     H1       HT       0.417000       1.00800           0
     27971 TIP3     6465     TIP3     H2       HT       0.417000       1.00800           0
     27972 TIP3     6466     TIP3     OH2      OT      -0.834000       15.9994           0
     27973 TIP3     6466     TIP3     H1       HT       0.417000       1.00800           0
     27974 TIP3     6466     TIP3     H2       HT       0.417000       1.00800           0
     27975 TIP3     6467     TIP3     OH2      OT      -0.834000       15.9994           0
     27976 TIP3     6467     TIP3     H1       HT       0.417000       1.00800           0
     27977 TIP3     6467     TIP3     H2       HT       0.417000       1.00800           0
     27978 TIP3     6468     TIP3     OH2      OT      -0.834000       15.9994           0
     27979 TIP3     6468     TIP3     H1       HT       0.417000       1.00800           0
     27980 TIP3     6468     TIP3     H2       HT       0.417000       1.00800           0
     27981 TIP3     6469     TIP3     OH2      OT      -0.834000       15.9994           0
     27982 TIP3     6469     TIP3     H1       HT       0.417000       1.00800           0
     27983 TIP3     6469     TIP3     H2       HT       0.417000       1.00800           0
     27984 TIP3     6470     TIP3     OH2      OT      -0.834000       15.9994           0
     27985 TIP3     6470     TIP3     H1       HT       0.417000       1.00800           0
     27986 TIP3     6470     TIP3     H2       HT       0.417000       1.00800           0
     27987 TIP3     6471     TIP3     OH2      OT      -0.834000       15.9994           0
     27988 TIP3     6471     TIP3     H1       HT       0.417000       1.00800           0
     27989 TIP3     6471     TIP3     H2       HT       0.417000       1.00800           0
     27990 TIP3     6472     TIP3     OH2      OT      -0.834000       15.9994           0
     27991 TIP3     6472     TIP3     H1       HT       0.417000       1.00800           0
     27992 TIP3     6472     TIP3     H2       HT       0.417000       1.00800           0
     27993 TIP3     6473     TIP3     OH2      OT      -0.834000       15.9994           0
     27994 TIP3     6473     TIP3     H1       HT       0.417000       1.00800           0
     27995 TIP3     6473     TIP3     H2       HT       0.417000       1.00800           0
     27996 TIP3     6474     TIP3     OH2      OT      -0.834000       15.9994           0
     27997 TIP3     6474     TIP3     H1       HT       0.417000       1.00800           0
     27998 TIP3     6474     TIP3     H2       HT       0.417000       1.00800           0
     27999 TIP3     6475     TIP3     OH2      OT      -0.834000       15.9994           0
     28000 TIP3     6475     TIP3     H1       HT       0.417000       1.00800           0
     28001 TIP3     6475     TIP3     H2       HT       0.417000       1.00800           0
     28002 TIP3     6476     TIP3     OH2      OT      -0.834000       15.9994           0
     28003 TIP3     6476     TIP3     H1       HT       0.417000       1.00800           0
     28004 TIP3     6476     TIP3     H2       HT       0.417000       1.00800           0
     28005 TIP3     6477     TIP3     OH2      OT      -0.834000       15.9994           0
     28006 TIP3     6477     TIP3     H1       HT       0.417000       1.00800           0
     28007 TIP3     6477     TIP3     H2       HT       0.417000       1.00800           0
     28008 TIP3     6478     TIP3     OH2      OT      -0.834000       15.9994           0
     28009 TIP3     6478     TIP3     H1       HT       0.417000       1.00800           0
     28010 TIP3     6478     TIP3     H2       HT       0.417000       1.00800           0
     28011 TIP3     6479     TIP3     OH2      OT      -0.834000       15.9994           0
     28012 TIP3     6479     TIP3     H1       HT       0.417000       1.00800           0
     28013 TIP3     6479     TIP3     H2       HT       0.417000       1.00800           0
     28014 TIP3     6480     TIP3     OH2      OT      -0.834000       15.9994           0
     28015 TIP3     6480     TIP3     H1       HT       0.417000       1.00800           0
     28016 TIP3     6480     TIP3     H2       HT       0.417000       1.00800           0
     28017 TIP3     6481     TIP3     OH2      OT      -0.834000       15.9994           0
     28018 TIP3     6481     TIP3     H1       HT       0.417000       1.00800           0
     28019 TIP3     6481     TIP3     H2       HT       0.417000       1.00800           0
     28020 TIP3     6482     TIP3     OH2      OT      -0.834000       15.9994           0
     28021 TIP3     6482     TIP3     H1       HT       0.417000       1.00800           0
     28022 TIP3     6482     TIP3     H2       HT       0.417000       1.00800           0
     28023 TIP3     6483     TIP3     OH2      OT      -0.834000       15.9994           0
     28024 TIP3     6483     TIP3     H1       HT       0.417000       1.00800           0
     28025 TIP3     6483     TIP3     H2       HT       0.417000       1.00800           0
     28026 TIP3     6484     TIP3     OH2      OT      -0.834000       15.9994           0
     28027 TIP3     6484     TIP3     H1       HT       0.417000       1.00800           0
     28028 TIP3     6484     TIP3     H2       HT       0.417000       1.00800           0
     28029 TIP3     6485     TIP3     OH2      OT      -0.834000       15.9994           0
     28030 TIP3     6485     TIP3     H1       HT       0.417000       1.00800           0
     28031 TIP3     6485     TIP3     H2       HT       0.417000       1.00800           0
     28032 TIP3     6486     TIP3     OH2      OT      -0.834000       15.9994           0
     28033 TIP3     6486     TIP3     H1       HT       0.417000       1.00800           0
     28034 TIP3     6486     TIP3     H2       HT       0.417000       1.00800           0
     28035 TIP3     6487     TIP3     OH2      OT      -0.834000       15.9994           0
     28036 TIP3     6487     TIP3     H1       HT       0.417000       1.00800           0
     28037 TIP3     6487     TIP3     H2       HT       0.417000       1.00800           0
     28038 TIP3     6488     TIP3     OH2      OT      -0.834000       15.9994           0
     28039 TIP3     6488     TIP3     H1       HT       0.417000       1.00800           0
     28040 TIP3     6488     TIP3     H2       HT       0.417000       1.00800           0
     28041 TIP3     6489     TIP3     OH2      OT      -0.834000       15.9994           0
     28042 TIP3     6489     TIP3     H1       HT       0.417000       1.00800           0
     28043 TIP3     6489     TIP3     H2       HT       0.417000       1.00800           0
     28044 TIP3     6490     TIP3     OH2      OT      -0.834000       15.9994           0
     28045 TIP3     6490     TIP3     H1       HT       0.417000       1.00800           0
     28046 TIP3     6490     TIP3     H2       HT       0.417000       1.00800           0
     28047 TIP3     6491     TIP3     OH2      OT      -0.834000       15.9994           0
     28048 TIP3     6491     TIP3     H1       HT       0.417000       1.00800           0
     28049 TIP3     6491     TIP3     H2       HT       0.417000       1.00800           0
     28050 TIP3     6492     TIP3     OH2      OT      -0.834000       15.9994           0
     28051 TIP3     6492     TIP3     H1       HT       0.417000       1.00800           0
     28052 TIP3     6492     TIP3     H2       HT       0.417000       1.00800           0
     28053 TIP3     6493     TIP3     OH2      OT      -0.834000       15.9994           0
     28054 TIP3     6493     TIP3     H1       HT       0.417000       1.00800           0
     28055 TIP3     6493     TIP3     H2       HT       0.417000       1.00800           0
     28056 TIP3     6494     TIP3     OH2      OT      -0.834000       15.9994           0
     28057 TIP3     6494     TIP3     H1       HT       0.417000       1.00800           0
     28058 TIP3     6494     TIP3     H2       HT       0.417000       1.00800           0
     28059 TIP3     6495     TIP3     OH2      OT      -0.834000       15.9994           0
     28060 TIP3     6495     TIP3     H1       HT       0.417000       1.00800           0
     28061 TIP3     6495     TIP3     H2       HT       0.417000       1.00800           0
     28062 TIP3     6496     TIP3     OH2      OT      -0.834000       15.9994           0
     28063 TIP3     6496     TIP3     H1       HT       0.417000       1.00800           0
     28064 TIP3     6496     TIP3     H2       HT       0.417000       1.00800           0
     28065 TIP3     6497     TIP3     OH2      OT      -0.834000       15.9994           0
     28066 TIP3     6497     TIP3     H1       HT       0.417000       1.00800           0
     28067 TIP3     6497     TIP3     H2       HT       0.417000       1.00800           0
     28068 TIP3     6498     TIP3     OH2      OT      -0.834000       15.9994           0
     28069 TIP3     6498     TIP3     H1       HT       0.417000       1.00800           0
     28070 TIP3     6498     TIP3     H2       HT       0.417000       1.00800           0
     28071 TIP3     6499     TIP3     OH2      OT      -0.834000       15.9994           0
     28072 TIP3     6499     TIP3     H1       HT       0.417000       1.00800           0
     28073 TIP3     6499     TIP3     H2       HT       0.417000       1.00800           0
     28074 TIP3     6500     TIP3     OH2      OT      -0.834000       15.9994           0
     28075 TIP3     6500     TIP3     H1       HT       0.417000       1.00800           0
     28076 TIP3     6500     TIP3     H2       HT       0.417000       1.00800           0
     28077 TIP3     6501     TIP3     OH2      OT      -0.834000       15.9994           0
     28078 TIP3     6501     TIP3     H1       HT       0.417000       1.00800           0
     28079 TIP3     6501     TIP3     H2       HT       0.417000       1.00800           0
     28080 TIP3     6502     TIP3     OH2      OT      -0.834000       15.9994           0
     28081 TIP3     6502     TIP3     H1       HT       0.417000       1.00800           0
     28082 TIP3     6502     TIP3     H2       HT       0.417000       1.00800           0
     28083 TIP3     6503     TIP3     OH2      OT      -0.834000       15.9994           0
     28084 TIP3     6503     TIP3     H1       HT       0.417000       1.00800           0
     28085 TIP3     6503     TIP3     H2       HT       0.417000       1.00800           0
     28086 TIP3     6504     TIP3     OH2      OT      -0.834000       15.9994           0
     28087 TIP3     6504     TIP3     H1       HT       0.417000       1.00800           0
     28088 TIP3     6504     TIP3     H2       HT       0.417000       1.00800           0
     28089 TIP3     6505     TIP3     OH2      OT      -0.834000       15.9994           0
     28090 TIP3     6505     TIP3     H1       HT       0.417000       1.00800           0
     28091 TIP3     6505     TIP3     H2       HT       0.417000       1.00800           0
     28092 TIP3     6506     TIP3     OH2      OT      -0.834000       15.9994           0
     28093 TIP3     6506     TIP3     H1       HT       0.417000       1.00800           0
     28094 TIP3     6506     TIP3     H2       HT       0.417000       1.00800           0
     28095 TIP3     6507     TIP3     OH2      OT      -0.834000       15.9994           0
     28096 TIP3     6507     TIP3     H1       HT       0.417000       1.00800           0
     28097 TIP3     6507     TIP3     H2       HT       0.417000       1.00800           0
     28098 TIP3     6508     TIP3     OH2      OT      -0.834000       15.9994           0
     28099 TIP3     6508     TIP3     H1       HT       0.417000       1.00800           0
     28100 TIP3     6508     TIP3     H2       HT       0.417000       1.00800           0
     28101 TIP3     6509     TIP3     OH2      OT      -0.834000       15.9994           0
     28102 TIP3     6509     TIP3     H1       HT       0.417000       1.00800           0
     28103 TIP3     6509     TIP3     H2       HT       0.417000       1.00800           0
     28104 TIP3     6510     TIP3     OH2      OT      -0.834000       15.9994           0
     28105 TIP3     6510     TIP3     H1       HT       0.417000       1.00800           0
     28106 TIP3     6510     TIP3     H2       HT       0.417000       1.00800           0
     28107 TIP3     6511     TIP3     OH2      OT      -0.834000       15.9994           0
     28108 TIP3     6511     TIP3     H1       HT       0.417000       1.00800           0
     28109 TIP3     6511     TIP3     H2       HT       0.417000       1.00800           0
     28110 TIP3     6512     TIP3     OH2      OT      -0.834000       15.9994           0
     28111 TIP3     6512     TIP3     H1       HT       0.417000       1.00800           0
     28112 TIP3     6512     TIP3     H2       HT       0.417000       1.00800           0
     28113 TIP3     6513     TIP3     OH2      OT      -0.834000       15.9994           0
     28114 TIP3     6513     TIP3     H1       HT       0.417000       1.00800           0
     28115 TIP3     6513     TIP3     H2       HT       0.417000       1.00800           0
     28116 TIP3     6514     TIP3     OH2      OT      -0.834000       15.9994           0
     28117 TIP3     6514     TIP3     H1       HT       0.417000       1.00800           0
     28118 TIP3     6514     TIP3     H2       HT       0.417000       1.00800           0
     28119 TIP3     6515     TIP3     OH2      OT      -0.834000       15.9994           0
     28120 TIP3     6515     TIP3     H1       HT       0.417000       1.00800           0
     28121 TIP3     6515     TIP3     H2       HT       0.417000       1.00800           0
     28122 TIP3     6516     TIP3     OH2      OT      -0.834000       15.9994           0
     28123 TIP3     6516     TIP3     H1       HT       0.417000       1.00800           0
     28124 TIP3     6516     TIP3     H2       HT       0.417000       1.00800           0
     28125 TIP3     6517     TIP3     OH2      OT      -0.834000       15.9994           0
     28126 TIP3     6517     TIP3     H1       HT       0.417000       1.00800           0
     28127 TIP3     6517     TIP3     H2       HT       0.417000       1.00800           0
     28128 TIP3     6518     TIP3     OH2      OT      -0.834000       15.9994           0
     28129 TIP3     6518     TIP3     H1       HT       0.417000       1.00800           0
     28130 TIP3     6518     TIP3     H2       HT       0.417000       1.00800           0
     28131 TIP3     6519     TIP3     OH2      OT      -0.834000       15.9994           0
     28132 TIP3     6519     TIP3     H1       HT       0.417000       1.00800           0
     28133 TIP3     6519     TIP3     H2       HT       0.417000       1.00800           0
     28134 TIP3     6520     TIP3     OH2      OT      -0.834000       15.9994           0
     28135 TIP3     6520     TIP3     H1       HT       0.417000       1.00800           0
     28136 TIP3     6520     TIP3     H2       HT       0.417000       1.00800           0
     28137 TIP3     6521     TIP3     OH2      OT      -0.834000       15.9994           0
     28138 TIP3     6521     TIP3     H1       HT       0.417000       1.00800           0
     28139 TIP3     6521     TIP3     H2       HT       0.417000       1.00800           0
     28140 TIP3     6522     TIP3     OH2      OT      -0.834000       15.9994           0
     28141 TIP3     6522     TIP3     H1       HT       0.417000       1.00800           0
     28142 TIP3     6522     TIP3     H2       HT       0.417000       1.00800           0
     28143 TIP3     6523     TIP3     OH2      OT      -0.834000       15.9994           0
     28144 TIP3     6523     TIP3     H1       HT       0.417000       1.00800           0
     28145 TIP3     6523     TIP3     H2       HT       0.417000       1.00800           0
     28146 TIP3     6524     TIP3     OH2      OT      -0.834000       15.9994           0
     28147 TIP3     6524     TIP3     H1       HT       0.417000       1.00800           0
     28148 TIP3     6524     TIP3     H2       HT       0.417000       1.00800           0
     28149 TIP3     6525     TIP3     OH2      OT      -0.834000       15.9994           0
     28150 TIP3     6525     TIP3     H1       HT       0.417000       1.00800           0
     28151 TIP3     6525     TIP3     H2       HT       0.417000       1.00800           0
     28152 TIP3     6526     TIP3     OH2      OT      -0.834000       15.9994           0
     28153 TIP3     6526     TIP3     H1       HT       0.417000       1.00800           0
     28154 TIP3     6526     TIP3     H2       HT       0.417000       1.00800           0
     28155 TIP3     6527     TIP3     OH2      OT      -0.834000       15.9994           0
     28156 TIP3     6527     TIP3     H1       HT       0.417000       1.00800           0
     28157 TIP3     6527     TIP3     H2       HT       0.417000       1.00800           0
     28158 TIP3     6528     TIP3     OH2      OT      -0.834000       15.9994           0
     28159 TIP3     6528     TIP3     H1       HT       0.417000       1.00800           0
     28160 TIP3     6528     TIP3     H2       HT       0.417000       1.00800           0
     28161 TIP3     6529     TIP3     OH2      OT      -0.834000       15.9994           0
     28162 TIP3     6529     TIP3     H1       HT       0.417000       1.00800           0
     28163 TIP3     6529     TIP3     H2       HT       0.417000       1.00800           0
     28164 TIP3     6530     TIP3     OH2      OT      -0.834000       15.9994           0
     28165 TIP3     6530     TIP3     H1       HT       0.417000       1.00800           0
     28166 TIP3     6530     TIP3     H2       HT       0.417000       1.00800           0
     28167 TIP3     6531     TIP3     OH2      OT      -0.834000       15.9994           0
     28168 TIP3     6531     TIP3     H1       HT       0.417000       1.00800           0
     28169 TIP3     6531     TIP3     H2       HT       0.417000       1.00800           0
     28170 TIP3     6532     TIP3     OH2      OT      -0.834000       15.9994           0
     28171 TIP3     6532     TIP3     H1       HT       0.417000       1.00800           0
     28172 TIP3     6532     TIP3     H2       HT       0.417000       1.00800           0
     28173 TIP3     6533     TIP3     OH2      OT      -0.834000       15.9994           0
     28174 TIP3     6533     TIP3     H1       HT       0.417000       1.00800           0
     28175 TIP3     6533     TIP3     H2       HT       0.417000       1.00800           0
     28176 TIP3     6534     TIP3     OH2      OT      -0.834000       15.9994           0
     28177 TIP3     6534     TIP3     H1       HT       0.417000       1.00800           0
     28178 TIP3     6534     TIP3     H2       HT       0.417000       1.00800           0
     28179 TIP3     6535     TIP3     OH2      OT      -0.834000       15.9994           0
     28180 TIP3     6535     TIP3     H1       HT       0.417000       1.00800           0
     28181 TIP3     6535     TIP3     H2       HT       0.417000       1.00800           0
     28182 TIP3     6536     TIP3     OH2      OT      -0.834000       15.9994           0
     28183 TIP3     6536     TIP3     H1       HT       0.417000       1.00800           0
     28184 TIP3     6536     TIP3     H2       HT       0.417000       1.00800           0
     28185 TIP3     6537     TIP3     OH2      OT      -0.834000       15.9994           0
     28186 TIP3     6537     TIP3     H1       HT       0.417000       1.00800           0
     28187 TIP3     6537     TIP3     H2       HT       0.417000       1.00800           0
     28188 TIP3     6538     TIP3     OH2      OT      -0.834000       15.9994           0
     28189 TIP3     6538     TIP3     H1       HT       0.417000       1.00800           0
     28190 TIP3     6538     TIP3     H2       HT       0.417000       1.00800           0
     28191 TIP3     6539     TIP3     OH2      OT      -0.834000       15.9994           0
     28192 TIP3     6539     TIP3     H1       HT       0.417000       1.00800           0
     28193 TIP3     6539     TIP3     H2       HT       0.417000       1.00800           0
     28194 TIP3     6540     TIP3     OH2      OT      -0.834000       15.9994           0
     28195 TIP3     6540     TIP3     H1       HT       0.417000       1.00800           0
     28196 TIP3     6540     TIP3     H2       HT       0.417000       1.00800           0
     28197 TIP3     6541     TIP3     OH2      OT      -0.834000       15.9994           0
     28198 TIP3     6541     TIP3     H1       HT       0.417000       1.00800           0
     28199 TIP3     6541     TIP3     H2       HT       0.417000       1.00800           0
     28200 TIP3     6542     TIP3     OH2      OT      -0.834000       15.9994           0
     28201 TIP3     6542     TIP3     H1       HT       0.417000       1.00800           0
     28202 TIP3     6542     TIP3     H2       HT       0.417000       1.00800           0
     28203 TIP3     6543     TIP3     OH2      OT      -0.834000       15.9994           0
     28204 TIP3     6543     TIP3     H1       HT       0.417000       1.00800           0
     28205 TIP3     6543     TIP3     H2       HT       0.417000       1.00800           0
     28206 TIP3     6544     TIP3     OH2      OT      -0.834000       15.9994           0
     28207 TIP3     6544     TIP3     H1       HT       0.417000       1.00800           0
     28208 TIP3     6544     TIP3     H2       HT       0.417000       1.00800           0
     28209 TIP3     6545     TIP3     OH2      OT      -0.834000       15.9994           0
     28210 TIP3     6545     TIP3     H1       HT       0.417000       1.00800           0
     28211 TIP3     6545     TIP3     H2       HT       0.417000       1.00800           0
     28212 TIP3     6546     TIP3     OH2      OT      -0.834000       15.9994           0
     28213 TIP3     6546     TIP3     H1       HT       0.417000       1.00800           0
     28214 TIP3     6546     TIP3     H2       HT       0.417000       1.00800           0
     28215 TIP3     6547     TIP3     OH2      OT      -0.834000       15.9994           0
     28216 TIP3     6547     TIP3     H1       HT       0.417000       1.00800           0
     28217 TIP3     6547     TIP3     H2       HT       0.417000       1.00800           0
     28218 TIP3     6548     TIP3     OH2      OT      -0.834000       15.9994           0
     28219 TIP3     6548     TIP3     H1       HT       0.417000       1.00800           0
     28220 TIP3     6548     TIP3     H2       HT       0.417000       1.00800           0
     28221 TIP3     6549     TIP3     OH2      OT      -0.834000       15.9994           0
     28222 TIP3     6549     TIP3     H1       HT       0.417000       1.00800           0
     28223 TIP3     6549     TIP3     H2       HT       0.417000       1.00800           0
     28224 TIP3     6550     TIP3     OH2      OT      -0.834000       15.9994           0
     28225 TIP3     6550     TIP3     H1       HT       0.417000       1.00800           0
     28226 TIP3     6550     TIP3     H2       HT       0.417000       1.00800           0
     28227 TIP3     6551     TIP3     OH2      OT      -0.834000       15.9994           0
     28228 TIP3     6551     TIP3     H1       HT       0.417000       1.00800           0
     28229 TIP3     6551     TIP3     H2       HT       0.417000       1.00800           0
     28230 TIP3     6552     TIP3     OH2      OT      -0.834000       15.9994           0
     28231 TIP3     6552     TIP3     H1       HT       0.417000       1.00800           0
     28232 TIP3     6552     TIP3     H2       HT       0.417000       1.00800           0
     28233 TIP3     6553     TIP3     OH2      OT      -0.834000       15.9994           0
     28234 TIP3     6553     TIP3     H1       HT       0.417000       1.00800           0
     28235 TIP3     6553     TIP3     H2       HT       0.417000       1.00800           0
     28236 TIP3     6554     TIP3     OH2      OT      -0.834000       15.9994           0
     28237 TIP3     6554     TIP3     H1       HT       0.417000       1.00800           0
     28238 TIP3     6554     TIP3     H2       HT       0.417000       1.00800           0
     28239 TIP3     6555     TIP3     OH2      OT      -0.834000       15.9994           0
     28240 TIP3     6555     TIP3     H1       HT       0.417000       1.00800           0
     28241 TIP3     6555     TIP3     H2       HT       0.417000       1.00800           0
     28242 TIP3     6556     TIP3     OH2      OT      -0.834000       15.9994           0
     28243 TIP3     6556     TIP3     H1       HT       0.417000       1.00800           0
     28244 TIP3     6556     TIP3     H2       HT       0.417000       1.00800           0
     28245 TIP3     6557     TIP3     OH2      OT      -0.834000       15.9994           0
     28246 TIP3     6557     TIP3     H1       HT       0.417000       1.00800           0
     28247 TIP3     6557     TIP3     H2       HT       0.417000       1.00800           0
     28248 TIP3     6558     TIP3     OH2      OT      -0.834000       15.9994           0
     28249 TIP3     6558     TIP3     H1       HT       0.417000       1.00800           0
     28250 TIP3     6558     TIP3     H2       HT       0.417000       1.00800           0
     28251 TIP3     6559     TIP3     OH2      OT      -0.834000       15.9994           0
     28252 TIP3     6559     TIP3     H1       HT       0.417000       1.00800           0
     28253 TIP3     6559     TIP3     H2       HT       0.417000       1.00800           0
     28254 TIP3     6560     TIP3     OH2      OT      -0.834000       15.9994           0
     28255 TIP3     6560     TIP3     H1       HT       0.417000       1.00800           0
     28256 TIP3     6560     TIP3     H2       HT       0.417000       1.00800           0
     28257 TIP3     6561     TIP3     OH2      OT      -0.834000       15.9994           0
     28258 TIP3     6561     TIP3     H1       HT       0.417000       1.00800           0
     28259 TIP3     6561     TIP3     H2       HT       0.417000       1.00800           0
     28260 TIP3     6562     TIP3     OH2      OT      -0.834000       15.9994           0
     28261 TIP3     6562     TIP3     H1       HT       0.417000       1.00800           0
     28262 TIP3     6562     TIP3     H2       HT       0.417000       1.00800           0
     28263 TIP3     6563     TIP3     OH2      OT      -0.834000       15.9994           0
     28264 TIP3     6563     TIP3     H1       HT       0.417000       1.00800           0
     28265 TIP3     6563     TIP3     H2       HT       0.417000       1.00800           0
     28266 TIP3     6564     TIP3     OH2      OT      -0.834000       15.9994           0
     28267 TIP3     6564     TIP3     H1       HT       0.417000       1.00800           0
     28268 TIP3     6564     TIP3     H2       HT       0.417000       1.00800           0
     28269 TIP3     6565     TIP3     OH2      OT      -0.834000       15.9994           0
     28270 TIP3     6565     TIP3     H1       HT       0.417000       1.00800           0
     28271 TIP3     6565     TIP3     H2       HT       0.417000       1.00800           0
     28272 TIP3     6566     TIP3     OH2      OT      -0.834000       15.9994           0
     28273 TIP3     6566     TIP3     H1       HT       0.417000       1.00800           0
     28274 TIP3     6566     TIP3     H2       HT       0.417000       1.00800           0
     28275 TIP3     6567     TIP3     OH2      OT      -0.834000       15.9994           0
     28276 TIP3     6567     TIP3     H1       HT       0.417000       1.00800           0
     28277 TIP3     6567     TIP3     H2       HT       0.417000       1.00800           0
     28278 TIP3     6568     TIP3     OH2      OT      -0.834000       15.9994           0
     28279 TIP3     6568     TIP3     H1       HT       0.417000       1.00800           0
     28280 TIP3     6568     TIP3     H2       HT       0.417000       1.00800           0
     28281 TIP3     6569     TIP3     OH2      OT      -0.834000       15.9994           0
     28282 TIP3     6569     TIP3     H1       HT       0.417000       1.00800           0
     28283 TIP3     6569     TIP3     H2       HT       0.417000       1.00800           0
     28284 TIP3     6570     TIP3     OH2      OT      -0.834000       15.9994           0
     28285 TIP3     6570     TIP3     H1       HT       0.417000       1.00800           0
     28286 TIP3     6570     TIP3     H2       HT       0.417000       1.00800           0
     28287 TIP3     6571     TIP3     OH2      OT      -0.834000       15.9994           0
     28288 TIP3     6571     TIP3     H1       HT       0.417000       1.00800           0
     28289 TIP3     6571     TIP3     H2       HT       0.417000       1.00800           0
     28290 TIP3     6572     TIP3     OH2      OT      -0.834000       15.9994           0
     28291 TIP3     6572     TIP3     H1       HT       0.417000       1.00800           0
     28292 TIP3     6572     TIP3     H2       HT       0.417000       1.00800           0
     28293 TIP3     6573     TIP3     OH2      OT      -0.834000       15.9994           0
     28294 TIP3     6573     TIP3     H1       HT       0.417000       1.00800           0
     28295 TIP3     6573     TIP3     H2       HT       0.417000       1.00800           0
     28296 TIP3     6574     TIP3     OH2      OT      -0.834000       15.9994           0
     28297 TIP3     6574     TIP3     H1       HT       0.417000       1.00800           0
     28298 TIP3     6574     TIP3     H2       HT       0.417000       1.00800           0
     28299 TIP3     6575     TIP3     OH2      OT      -0.834000       15.9994           0
     28300 TIP3     6575     TIP3     H1       HT       0.417000       1.00800           0
     28301 TIP3     6575     TIP3     H2       HT       0.417000       1.00800           0
     28302 TIP3     6576     TIP3     OH2      OT      -0.834000       15.9994           0
     28303 TIP3     6576     TIP3     H1       HT       0.417000       1.00800           0
     28304 TIP3     6576     TIP3     H2       HT       0.417000       1.00800           0
     28305 TIP3     6577     TIP3     OH2      OT      -0.834000       15.9994           0
     28306 TIP3     6577     TIP3     H1       HT       0.417000       1.00800           0
     28307 TIP3     6577     TIP3     H2       HT       0.417000       1.00800           0
     28308 TIP3     6578     TIP3     OH2      OT      -0.834000       15.9994           0
     28309 TIP3     6578     TIP3     H1       HT       0.417000       1.00800           0
     28310 TIP3     6578     TIP3     H2       HT       0.417000       1.00800           0
     28311 TIP3     6579     TIP3     OH2      OT      -0.834000       15.9994           0
     28312 TIP3     6579     TIP3     H1       HT       0.417000       1.00800           0
     28313 TIP3     6579     TIP3     H2       HT       0.417000       1.00800           0
     28314 TIP3     6580     TIP3     OH2      OT      -0.834000       15.9994           0
     28315 TIP3     6580     TIP3     H1       HT       0.417000       1.00800           0
     28316 TIP3     6580     TIP3     H2       HT       0.417000       1.00800           0
     28317 TIP3     6581     TIP3     OH2      OT      -0.834000       15.9994           0
     28318 TIP3     6581     TIP3     H1       HT       0.417000       1.00800           0
     28319 TIP3     6581     TIP3     H2       HT       0.417000       1.00800           0
     28320 TIP3     6582     TIP3     OH2      OT      -0.834000       15.9994           0
     28321 TIP3     6582     TIP3     H1       HT       0.417000       1.00800           0
     28322 TIP3     6582     TIP3     H2       HT       0.417000       1.00800           0
     28323 TIP3     6583     TIP3     OH2      OT      -0.834000       15.9994           0
     28324 TIP3     6583     TIP3     H1       HT       0.417000       1.00800           0
     28325 TIP3     6583     TIP3     H2       HT       0.417000       1.00800           0
     28326 TIP3     6584     TIP3     OH2      OT      -0.834000       15.9994           0
     28327 TIP3     6584     TIP3     H1       HT       0.417000       1.00800           0
     28328 TIP3     6584     TIP3     H2       HT       0.417000       1.00800           0
     28329 TIP3     6585     TIP3     OH2      OT      -0.834000       15.9994           0
     28330 TIP3     6585     TIP3     H1       HT       0.417000       1.00800           0
     28331 TIP3     6585     TIP3     H2       HT       0.417000       1.00800           0
     28332 TIP3     6586     TIP3     OH2      OT      -0.834000       15.9994           0
     28333 TIP3     6586     TIP3     H1       HT       0.417000       1.00800           0
     28334 TIP3     6586     TIP3     H2       HT       0.417000       1.00800           0
     28335 TIP3     6587     TIP3     OH2      OT      -0.834000       15.9994           0
     28336 TIP3     6587     TIP3     H1       HT       0.417000       1.00800           0
     28337 TIP3     6587     TIP3     H2       HT       0.417000       1.00800           0
     28338 TIP3     6588     TIP3     OH2      OT      -0.834000       15.9994           0
     28339 TIP3     6588     TIP3     H1       HT       0.417000       1.00800           0
     28340 TIP3     6588     TIP3     H2       HT       0.417000       1.00800           0
     28341 TIP3     6589     TIP3     OH2      OT      -0.834000       15.9994           0
     28342 TIP3     6589     TIP3     H1       HT       0.417000       1.00800           0
     28343 TIP3     6589     TIP3     H2       HT       0.417000       1.00800           0
     28344 TIP3     6590     TIP3     OH2      OT      -0.834000       15.9994           0
     28345 TIP3     6590     TIP3     H1       HT       0.417000       1.00800           0
     28346 TIP3     6590     TIP3     H2       HT       0.417000       1.00800           0
     28347 TIP3     6591     TIP3     OH2      OT      -0.834000       15.9994           0
     28348 TIP3     6591     TIP3     H1       HT       0.417000       1.00800           0
     28349 TIP3     6591     TIP3     H2       HT       0.417000       1.00800           0
     28350 TIP3     6592     TIP3     OH2      OT      -0.834000       15.9994           0
     28351 TIP3     6592     TIP3     H1       HT       0.417000       1.00800           0
     28352 TIP3     6592     TIP3     H2       HT       0.417000       1.00800           0
     28353 TIP3     6593     TIP3     OH2      OT      -0.834000       15.9994           0
     28354 TIP3     6593     TIP3     H1       HT       0.417000       1.00800           0
     28355 TIP3     6593     TIP3     H2       HT       0.417000       1.00800           0
     28356 TIP3     6594     TIP3     OH2      OT      -0.834000       15.9994           0
     28357 TIP3     6594     TIP3     H1       HT       0.417000       1.00800           0
     28358 TIP3     6594     TIP3     H2       HT       0.417000       1.00800           0
     28359 TIP3     6595     TIP3     OH2      OT      -0.834000       15.9994           0
     28360 TIP3     6595     TIP3     H1       HT       0.417000       1.00800           0
     28361 TIP3     6595     TIP3     H2       HT       0.417000       1.00800           0
     28362 TIP3     6596     TIP3     OH2      OT      -0.834000       15.9994           0
     28363 TIP3     6596     TIP3     H1       HT       0.417000       1.00800           0
     28364 TIP3     6596     TIP3     H2       HT       0.417000       1.00800           0
     28365 TIP3     6597     TIP3     OH2      OT      -0.834000       15.9994           0
     28366 TIP3     6597     TIP3     H1       HT       0.417000       1.00800           0
     28367 TIP3     6597     TIP3     H2       HT       0.417000       1.00800           0
     28368 TIP3     6598     TIP3     OH2      OT      -0.834000       15.9994           0
     28369 TIP3     6598     TIP3     H1       HT       0.417000       1.00800           0
     28370 TIP3     6598     TIP3     H2       HT       0.417000       1.00800           0
     28371 TIP3     6599     TIP3     OH2      OT      -0.834000       15.9994           0
     28372 TIP3     6599     TIP3     H1       HT       0.417000       1.00800           0
     28373 TIP3     6599     TIP3     H2       HT       0.417000       1.00800           0
     28374 TIP3     6600     TIP3     OH2      OT      -0.834000       15.9994           0
     28375 TIP3     6600     TIP3     H1       HT       0.417000       1.00800           0
     28376 TIP3     6600     TIP3     H2       HT       0.417000       1.00800           0
     28377 TIP3     6601     TIP3     OH2      OT      -0.834000       15.9994           0
     28378 TIP3     6601     TIP3     H1       HT       0.417000       1.00800           0
     28379 TIP3     6601     TIP3     H2       HT       0.417000       1.00800           0
     28380 TIP3     6602     TIP3     OH2      OT      -0.834000       15.9994           0
     28381 TIP3     6602     TIP3     H1       HT       0.417000       1.00800           0
     28382 TIP3     6602     TIP3     H2       HT       0.417000       1.00800           0
     28383 TIP3     6603     TIP3     OH2      OT      -0.834000       15.9994           0
     28384 TIP3     6603     TIP3     H1       HT       0.417000       1.00800           0
     28385 TIP3     6603     TIP3     H2       HT       0.417000       1.00800           0
     28386 TIP3     6604     TIP3     OH2      OT      -0.834000       15.9994           0
     28387 TIP3     6604     TIP3     H1       HT       0.417000       1.00800           0
     28388 TIP3     6604     TIP3     H2       HT       0.417000       1.00800           0
     28389 TIP3     6605     TIP3     OH2      OT      -0.834000       15.9994           0
     28390 TIP3     6605     TIP3     H1       HT       0.417000       1.00800           0
     28391 TIP3     6605     TIP3     H2       HT       0.417000       1.00800           0
     28392 TIP3     6606     TIP3     OH2      OT      -0.834000       15.9994           0
     28393 TIP3     6606     TIP3     H1       HT       0.417000       1.00800           0
     28394 TIP3     6606     TIP3     H2       HT       0.417000       1.00800           0
     28395 TIP3     6607     TIP3     OH2      OT      -0.834000       15.9994           0
     28396 TIP3     6607     TIP3     H1       HT       0.417000       1.00800           0
     28397 TIP3     6607     TIP3     H2       HT       0.417000       1.00800           0
     28398 TIP3     6608     TIP3     OH2      OT      -0.834000       15.9994           0
     28399 TIP3     6608     TIP3     H1       HT       0.417000       1.00800           0
     28400 TIP3     6608     TIP3     H2       HT       0.417000       1.00800           0
     28401 TIP3     6609     TIP3     OH2      OT      -0.834000       15.9994           0
     28402 TIP3     6609     TIP3     H1       HT       0.417000       1.00800           0
     28403 TIP3     6609     TIP3     H2       HT       0.417000       1.00800           0
     28404 TIP3     6610     TIP3     OH2      OT      -0.834000       15.9994           0
     28405 TIP3     6610     TIP3     H1       HT       0.417000       1.00800           0
     28406 TIP3     6610     TIP3     H2       HT       0.417000       1.00800           0
     28407 TIP3     6611     TIP3     OH2      OT      -0.834000       15.9994           0
     28408 TIP3     6611     TIP3     H1       HT       0.417000       1.00800           0
     28409 TIP3     6611     TIP3     H2       HT       0.417000       1.00800           0
     28410 TIP3     6612     TIP3     OH2      OT      -0.834000       15.9994           0
     28411 TIP3     6612     TIP3     H1       HT       0.417000       1.00800           0
     28412 TIP3     6612     TIP3     H2       HT       0.417000       1.00800           0
     28413 TIP3     6613     TIP3     OH2      OT      -0.834000       15.9994           0
     28414 TIP3     6613     TIP3     H1       HT       0.417000       1.00800           0
     28415 TIP3     6613     TIP3     H2       HT       0.417000       1.00800           0
     28416 TIP3     6614     TIP3     OH2      OT      -0.834000       15.9994           0
     28417 TIP3     6614     TIP3     H1       HT       0.417000       1.00800           0
     28418 TIP3     6614     TIP3     H2       HT       0.417000       1.00800           0
     28419 TIP3     6615     TIP3     OH2      OT      -0.834000       15.9994           0
     28420 TIP3     6615     TIP3     H1       HT       0.417000       1.00800           0
     28421 TIP3     6615     TIP3     H2       HT       0.417000       1.00800           0
     28422 TIP3     6616     TIP3     OH2      OT      -0.834000       15.9994           0
     28423 TIP3     6616     TIP3     H1       HT       0.417000       1.00800           0
     28424 TIP3     6616     TIP3     H2       HT       0.417000       1.00800           0
     28425 TIP3     6617     TIP3     OH2      OT      -0.834000       15.9994           0
     28426 TIP3     6617     TIP3     H1       HT       0.417000       1.00800           0
     28427 TIP3     6617     TIP3     H2       HT       0.417000       1.00800           0
     28428 TIP3     6618     TIP3     OH2      OT      -0.834000       15.9994           0
     28429 TIP3     6618     TIP3     H1       HT       0.417000       1.00800           0
     28430 TIP3     6618     TIP3     H2       HT       0.417000       1.00800           0
     28431 TIP3     6619     TIP3     OH2      OT      -0.834000       15.9994           0
     28432 TIP3     6619     TIP3     H1       HT       0.417000       1.00800           0
     28433 TIP3     6619     TIP3     H2       HT       0.417000       1.00800           0
     28434 TIP3     6620     TIP3     OH2      OT      -0.834000       15.9994           0
     28435 TIP3     6620     TIP3     H1       HT       0.417000       1.00800           0
     28436 TIP3     6620     TIP3     H2       HT       0.417000       1.00800           0
     28437 TIP3     6621     TIP3     OH2      OT      -0.834000       15.9994           0
     28438 TIP3     6621     TIP3     H1       HT       0.417000       1.00800           0
     28439 TIP3     6621     TIP3     H2       HT       0.417000       1.00800           0
     28440 TIP3     6622     TIP3     OH2      OT      -0.834000       15.9994           0
     28441 TIP3     6622     TIP3     H1       HT       0.417000       1.00800           0
     28442 TIP3     6622     TIP3     H2       HT       0.417000       1.00800           0
     28443 TIP3     6623     TIP3     OH2      OT      -0.834000       15.9994           0
     28444 TIP3     6623     TIP3     H1       HT       0.417000       1.00800           0
     28445 TIP3     6623     TIP3     H2       HT       0.417000       1.00800           0
     28446 TIP3     6624     TIP3     OH2      OT      -0.834000       15.9994           0
     28447 TIP3     6624     TIP3     H1       HT       0.417000       1.00800           0
     28448 TIP3     6624     TIP3     H2       HT       0.417000       1.00800           0
     28449 TIP3     6625     TIP3     OH2      OT      -0.834000       15.9994           0
     28450 TIP3     6625     TIP3     H1       HT       0.417000       1.00800           0
     28451 TIP3     6625     TIP3     H2       HT       0.417000       1.00800           0
     28452 TIP3     6626     TIP3     OH2      OT      -0.834000       15.9994           0
     28453 TIP3     6626     TIP3     H1       HT       0.417000       1.00800           0
     28454 TIP3     6626     TIP3     H2       HT       0.417000       1.00800           0
     28455 TIP3     6627     TIP3     OH2      OT      -0.834000       15.9994           0
     28456 TIP3     6627     TIP3     H1       HT       0.417000       1.00800           0
     28457 TIP3     6627     TIP3     H2       HT       0.417000       1.00800           0
     28458 TIP3     6628     TIP3     OH2      OT      -0.834000       15.9994           0
     28459 TIP3     6628     TIP3     H1       HT       0.417000       1.00800           0
     28460 TIP3     6628     TIP3     H2       HT       0.417000       1.00800           0
     28461 TIP3     6629     TIP3     OH2      OT      -0.834000       15.9994           0
     28462 TIP3     6629     TIP3     H1       HT       0.417000       1.00800           0
     28463 TIP3     6629     TIP3     H2       HT       0.417000       1.00800           0
     28464 TIP3     6630     TIP3     OH2      OT      -0.834000       15.9994           0
     28465 TIP3     6630     TIP3     H1       HT       0.417000       1.00800           0
     28466 TIP3     6630     TIP3     H2       HT       0.417000       1.00800           0
     28467 TIP3     6631     TIP3     OH2      OT      -0.834000       15.9994           0
     28468 TIP3     6631     TIP3     H1       HT       0.417000       1.00800           0
     28469 TIP3     6631     TIP3     H2       HT       0.417000       1.00800           0
     28470 TIP3     6632     TIP3     OH2      OT      -0.834000       15.9994           0
     28471 TIP3     6632     TIP3     H1       HT       0.417000       1.00800           0
     28472 TIP3     6632     TIP3     H2       HT       0.417000       1.00800           0
     28473 TIP3     6633     TIP3     OH2      OT      -0.834000       15.9994           0
     28474 TIP3     6633     TIP3     H1       HT       0.417000       1.00800           0
     28475 TIP3     6633     TIP3     H2       HT       0.417000       1.00800           0
     28476 TIP3     6634     TIP3     OH2      OT      -0.834000       15.9994           0
     28477 TIP3     6634     TIP3     H1       HT       0.417000       1.00800           0
     28478 TIP3     6634     TIP3     H2       HT       0.417000       1.00800           0
     28479 TIP3     6635     TIP3     OH2      OT      -0.834000       15.9994           0
     28480 TIP3     6635     TIP3     H1       HT       0.417000       1.00800           0
     28481 TIP3     6635     TIP3     H2       HT       0.417000       1.00800           0
     28482 TIP3     6636     TIP3     OH2      OT      -0.834000       15.9994           0
     28483 TIP3     6636     TIP3     H1       HT       0.417000       1.00800           0
     28484 TIP3     6636     TIP3     H2       HT       0.417000       1.00800           0
     28485 TIP3     6637     TIP3     OH2      OT      -0.834000       15.9994           0
     28486 TIP3     6637     TIP3     H1       HT       0.417000       1.00800           0
     28487 TIP3     6637     TIP3     H2       HT       0.417000       1.00800           0
     28488 TIP3     6638     TIP3     OH2      OT      -0.834000       15.9994           0
     28489 TIP3     6638     TIP3     H1       HT       0.417000       1.00800           0
     28490 TIP3     6638     TIP3     H2       HT       0.417000       1.00800           0
     28491 TIP3     6639     TIP3     OH2      OT      -0.834000       15.9994           0
     28492 TIP3     6639     TIP3     H1       HT       0.417000       1.00800           0
     28493 TIP3     6639     TIP3     H2       HT       0.417000       1.00800           0
     28494 TIP3     6640     TIP3     OH2      OT      -0.834000       15.9994           0
     28495 TIP3     6640     TIP3     H1       HT       0.417000       1.00800           0
     28496 TIP3     6640     TIP3     H2       HT       0.417000       1.00800           0
     28497 TIP3     6641     TIP3     OH2      OT      -0.834000       15.9994           0
     28498 TIP3     6641     TIP3     H1       HT       0.417000       1.00800           0
     28499 TIP3     6641     TIP3     H2       HT       0.417000       1.00800           0
     28500 TIP3     6642     TIP3     OH2      OT      -0.834000       15.9994           0
     28501 TIP3     6642     TIP3     H1       HT       0.417000       1.00800           0
     28502 TIP3     6642     TIP3     H2       HT       0.417000       1.00800           0
     28503 TIP3     6643     TIP3     OH2      OT      -0.834000       15.9994           0
     28504 TIP3     6643     TIP3     H1       HT       0.417000       1.00800           0
     28505 TIP3     6643     TIP3     H2       HT       0.417000       1.00800           0
     28506 TIP3     6644     TIP3     OH2      OT      -0.834000       15.9994           0
     28507 TIP3     6644     TIP3     H1       HT       0.417000       1.00800           0
     28508 TIP3     6644     TIP3     H2       HT       0.417000       1.00800           0
     28509 TIP3     6645     TIP3     OH2      OT      -0.834000       15.9994           0
     28510 TIP3     6645     TIP3     H1       HT       0.417000       1.00800           0
     28511 TIP3     6645     TIP3     H2       HT       0.417000       1.00800           0
     28512 TIP3     6646     TIP3     OH2      OT      -0.834000       15.9994           0
     28513 TIP3     6646     TIP3     H1       HT       0.417000       1.00800           0
     28514 TIP3     6646     TIP3     H2       HT       0.417000       1.00800           0
     28515 TIP3     6647     TIP3     OH2      OT      -0.834000       15.9994           0
     28516 TIP3     6647     TIP3     H1       HT       0.417000       1.00800           0
     28517 TIP3     6647     TIP3     H2       HT       0.417000       1.00800           0
     28518 TIP3     6648     TIP3     OH2      OT      -0.834000       15.9994           0
     28519 TIP3     6648     TIP3     H1       HT       0.417000       1.00800           0
     28520 TIP3     6648     TIP3     H2       HT       0.417000       1.00800           0
     28521 TIP3     6649     TIP3     OH2      OT      -0.834000       15.9994           0
     28522 TIP3     6649     TIP3     H1       HT       0.417000       1.00800           0
     28523 TIP3     6649     TIP3     H2       HT       0.417000       1.00800           0
     28524 TIP3     6650     TIP3     OH2      OT      -0.834000       15.9994           0
     28525 TIP3     6650     TIP3     H1       HT       0.417000       1.00800           0
     28526 TIP3     6650     TIP3     H2       HT       0.417000       1.00800           0
     28527 TIP3     6651     TIP3     OH2      OT      -0.834000       15.9994           0
     28528 TIP3     6651     TIP3     H1       HT       0.417000       1.00800           0
     28529 TIP3     6651     TIP3     H2       HT       0.417000       1.00800           0
     28530 TIP3     6652     TIP3     OH2      OT      -0.834000       15.9994           0
     28531 TIP3     6652     TIP3     H1       HT       0.417000       1.00800           0
     28532 TIP3     6652     TIP3     H2       HT       0.417000       1.00800           0
     28533 TIP3     6653     TIP3     OH2      OT      -0.834000       15.9994           0
     28534 TIP3     6653     TIP3     H1       HT       0.417000       1.00800           0
     28535 TIP3     6653     TIP3     H2       HT       0.417000       1.00800           0
     28536 TIP3     6654     TIP3     OH2      OT      -0.834000       15.9994           0
     28537 TIP3     6654     TIP3     H1       HT       0.417000       1.00800           0
     28538 TIP3     6654     TIP3     H2       HT       0.417000       1.00800           0
     28539 TIP3     6655     TIP3     OH2      OT      -0.834000       15.9994           0
     28540 TIP3     6655     TIP3     H1       HT       0.417000       1.00800           0
     28541 TIP3     6655     TIP3     H2       HT       0.417000       1.00800           0
     28542 TIP3     6656     TIP3     OH2      OT      -0.834000       15.9994           0
     28543 TIP3     6656     TIP3     H1       HT       0.417000       1.00800           0
     28544 TIP3     6656     TIP3     H2       HT       0.417000       1.00800           0
     28545 TIP3     6657     TIP3     OH2      OT      -0.834000       15.9994           0
     28546 TIP3     6657     TIP3     H1       HT       0.417000       1.00800           0
     28547 TIP3     6657     TIP3     H2       HT       0.417000       1.00800           0
     28548 TIP3     6658     TIP3     OH2      OT      -0.834000       15.9994           0
     28549 TIP3     6658     TIP3     H1       HT       0.417000       1.00800           0
     28550 TIP3     6658     TIP3     H2       HT       0.417000       1.00800           0
     28551 TIP3     6659     TIP3     OH2      OT      -0.834000       15.9994           0
     28552 TIP3     6659     TIP3     H1       HT       0.417000       1.00800           0
     28553 TIP3     6659     TIP3     H2       HT       0.417000       1.00800           0
     28554 TIP3     6660     TIP3     OH2      OT      -0.834000       15.9994           0
     28555 TIP3     6660     TIP3     H1       HT       0.417000       1.00800           0
     28556 TIP3     6660     TIP3     H2       HT       0.417000       1.00800           0
     28557 TIP3     6661     TIP3     OH2      OT      -0.834000       15.9994           0
     28558 TIP3     6661     TIP3     H1       HT       0.417000       1.00800           0
     28559 TIP3     6661     TIP3     H2       HT       0.417000       1.00800           0
     28560 TIP3     6662     TIP3     OH2      OT      -0.834000       15.9994           0
     28561 TIP3     6662     TIP3     H1       HT       0.417000       1.00800           0
     28562 TIP3     6662     TIP3     H2       HT       0.417000       1.00800           0
     28563 TIP3     6663     TIP3     OH2      OT      -0.834000       15.9994           0
     28564 TIP3     6663     TIP3     H1       HT       0.417000       1.00800           0
     28565 TIP3     6663     TIP3     H2       HT       0.417000       1.00800           0
     28566 TIP3     6664     TIP3     OH2      OT      -0.834000       15.9994           0
     28567 TIP3     6664     TIP3     H1       HT       0.417000       1.00800           0
     28568 TIP3     6664     TIP3     H2       HT       0.417000       1.00800           0
     28569 TIP3     6665     TIP3     OH2      OT      -0.834000       15.9994           0
     28570 TIP3     6665     TIP3     H1       HT       0.417000       1.00800           0
     28571 TIP3     6665     TIP3     H2       HT       0.417000       1.00800           0
     28572 TIP3     6666     TIP3     OH2      OT      -0.834000       15.9994           0
     28573 TIP3     6666     TIP3     H1       HT       0.417000       1.00800           0
     28574 TIP3     6666     TIP3     H2       HT       0.417000       1.00800           0
     28575 TIP3     6667     TIP3     OH2      OT      -0.834000       15.9994           0
     28576 TIP3     6667     TIP3     H1       HT       0.417000       1.00800           0
     28577 TIP3     6667     TIP3     H2       HT       0.417000       1.00800           0
     28578 TIP3     6668     TIP3     OH2      OT      -0.834000       15.9994           0
     28579 TIP3     6668     TIP3     H1       HT       0.417000       1.00800           0
     28580 TIP3     6668     TIP3     H2       HT       0.417000       1.00800           0
     28581 TIP3     6669     TIP3     OH2      OT      -0.834000       15.9994           0
     28582 TIP3     6669     TIP3     H1       HT       0.417000       1.00800           0
     28583 TIP3     6669     TIP3     H2       HT       0.417000       1.00800           0
     28584 TIP3     6670     TIP3     OH2      OT      -0.834000       15.9994           0
     28585 TIP3     6670     TIP3     H1       HT       0.417000       1.00800           0
     28586 TIP3     6670     TIP3     H2       HT       0.417000       1.00800           0
     28587 TIP3     6671     TIP3     OH2      OT      -0.834000       15.9994           0
     28588 TIP3     6671     TIP3     H1       HT       0.417000       1.00800           0
     28589 TIP3     6671     TIP3     H2       HT       0.417000       1.00800           0
     28590 TIP3     6672     TIP3     OH2      OT      -0.834000       15.9994           0
     28591 TIP3     6672     TIP3     H1       HT       0.417000       1.00800           0
     28592 TIP3     6672     TIP3     H2       HT       0.417000       1.00800           0
     28593 TIP3     6673     TIP3     OH2      OT      -0.834000       15.9994           0
     28594 TIP3     6673     TIP3     H1       HT       0.417000       1.00800           0
     28595 TIP3     6673     TIP3     H2       HT       0.417000       1.00800           0
     28596 TIP3     6674     TIP3     OH2      OT      -0.834000       15.9994           0
     28597 TIP3     6674     TIP3     H1       HT       0.417000       1.00800           0
     28598 TIP3     6674     TIP3     H2       HT       0.417000       1.00800           0
     28599 TIP3     6675     TIP3     OH2      OT      -0.834000       15.9994           0
     28600 TIP3     6675     TIP3     H1       HT       0.417000       1.00800           0
     28601 TIP3     6675     TIP3     H2       HT       0.417000       1.00800           0
     28602 TIP3     6676     TIP3     OH2      OT      -0.834000       15.9994           0
     28603 TIP3     6676     TIP3     H1       HT       0.417000       1.00800           0
     28604 TIP3     6676     TIP3     H2       HT       0.417000       1.00800           0
     28605 TIP3     6677     TIP3     OH2      OT      -0.834000       15.9994           0
     28606 TIP3     6677     TIP3     H1       HT       0.417000       1.00800           0
     28607 TIP3     6677     TIP3     H2       HT       0.417000       1.00800           0
     28608 TIP3     6678     TIP3     OH2      OT      -0.834000       15.9994           0
     28609 TIP3     6678     TIP3     H1       HT       0.417000       1.00800           0
     28610 TIP3     6678     TIP3     H2       HT       0.417000       1.00800           0
     28611 TIP3     6679     TIP3     OH2      OT      -0.834000       15.9994           0
     28612 TIP3     6679     TIP3     H1       HT       0.417000       1.00800           0
     28613 TIP3     6679     TIP3     H2       HT       0.417000       1.00800           0
     28614 TIP3     6680     TIP3     OH2      OT      -0.834000       15.9994           0
     28615 TIP3     6680     TIP3     H1       HT       0.417000       1.00800           0
     28616 TIP3     6680     TIP3     H2       HT       0.417000       1.00800           0
     28617 TIP3     6681     TIP3     OH2      OT      -0.834000       15.9994           0
     28618 TIP3     6681     TIP3     H1       HT       0.417000       1.00800           0
     28619 TIP3     6681     TIP3     H2       HT       0.417000       1.00800           0
     28620 TIP3     6682     TIP3     OH2      OT      -0.834000       15.9994           0
     28621 TIP3     6682     TIP3     H1       HT       0.417000       1.00800           0
     28622 TIP3     6682     TIP3     H2       HT       0.417000       1.00800           0
     28623 TIP3     6683     TIP3     OH2      OT      -0.834000       15.9994           0
     28624 TIP3     6683     TIP3     H1       HT       0.417000       1.00800           0
     28625 TIP3     6683     TIP3     H2       HT       0.417000       1.00800           0
     28626 TIP3     6684     TIP3     OH2      OT      -0.834000       15.9994           0
     28627 TIP3     6684     TIP3     H1       HT       0.417000       1.00800           0
     28628 TIP3     6684     TIP3     H2       HT       0.417000       1.00800           0
     28629 TIP3     6685     TIP3     OH2      OT      -0.834000       15.9994           0
     28630 TIP3     6685     TIP3     H1       HT       0.417000       1.00800           0
     28631 TIP3     6685     TIP3     H2       HT       0.417000       1.00800           0
     28632 TIP3     6686     TIP3     OH2      OT      -0.834000       15.9994           0
     28633 TIP3     6686     TIP3     H1       HT       0.417000       1.00800           0
     28634 TIP3     6686     TIP3     H2       HT       0.417000       1.00800           0
     28635 TIP3     6687     TIP3     OH2      OT      -0.834000       15.9994           0
     28636 TIP3     6687     TIP3     H1       HT       0.417000       1.00800           0
     28637 TIP3     6687     TIP3     H2       HT       0.417000       1.00800           0
     28638 TIP3     6688     TIP3     OH2      OT      -0.834000       15.9994           0
     28639 TIP3     6688     TIP3     H1       HT       0.417000       1.00800           0
     28640 TIP3     6688     TIP3     H2       HT       0.417000       1.00800           0
     28641 TIP3     6689     TIP3     OH2      OT      -0.834000       15.9994           0
     28642 TIP3     6689     TIP3     H1       HT       0.417000       1.00800           0
     28643 TIP3     6689     TIP3     H2       HT       0.417000       1.00800           0
     28644 TIP3     6690     TIP3     OH2      OT      -0.834000       15.9994           0
     28645 TIP3     6690     TIP3     H1       HT       0.417000       1.00800           0
     28646 TIP3     6690     TIP3     H2       HT       0.417000       1.00800           0
     28647 TIP3     6691     TIP3     OH2      OT      -0.834000       15.9994           0
     28648 TIP3     6691     TIP3     H1       HT       0.417000       1.00800           0
     28649 TIP3     6691     TIP3     H2       HT       0.417000       1.00800           0
     28650 TIP3     6692     TIP3     OH2      OT      -0.834000       15.9994           0
     28651 TIP3     6692     TIP3     H1       HT       0.417000       1.00800           0
     28652 TIP3     6692     TIP3     H2       HT       0.417000       1.00800           0
     28653 TIP3     6693     TIP3     OH2      OT      -0.834000       15.9994           0
     28654 TIP3     6693     TIP3     H1       HT       0.417000       1.00800           0
     28655 TIP3     6693     TIP3     H2       HT       0.417000       1.00800           0
     28656 TIP3     6694     TIP3     OH2      OT      -0.834000       15.9994           0
     28657 TIP3     6694     TIP3     H1       HT       0.417000       1.00800           0
     28658 TIP3     6694     TIP3     H2       HT       0.417000       1.00800           0
     28659 TIP3     6695     TIP3     OH2      OT      -0.834000       15.9994           0
     28660 TIP3     6695     TIP3     H1       HT       0.417000       1.00800           0
     28661 TIP3     6695     TIP3     H2       HT       0.417000       1.00800           0
     28662 TIP3     6696     TIP3     OH2      OT      -0.834000       15.9994           0
     28663 TIP3     6696     TIP3     H1       HT       0.417000       1.00800           0
     28664 TIP3     6696     TIP3     H2       HT       0.417000       1.00800           0
     28665 TIP3     6697     TIP3     OH2      OT      -0.834000       15.9994           0
     28666 TIP3     6697     TIP3     H1       HT       0.417000       1.00800           0
     28667 TIP3     6697     TIP3     H2       HT       0.417000       1.00800           0
     28668 TIP3     6698     TIP3     OH2      OT      -0.834000       15.9994           0
     28669 TIP3     6698     TIP3     H1       HT       0.417000       1.00800           0
     28670 TIP3     6698     TIP3     H2       HT       0.417000       1.00800           0
     28671 TIP3     6699     TIP3     OH2      OT      -0.834000       15.9994           0
     28672 TIP3     6699     TIP3     H1       HT       0.417000       1.00800           0
     28673 TIP3     6699     TIP3     H2       HT       0.417000       1.00800           0
     28674 TIP3     6700     TIP3     OH2      OT      -0.834000       15.9994           0
     28675 TIP3     6700     TIP3     H1       HT       0.417000       1.00800           0
     28676 TIP3     6700     TIP3     H2       HT       0.417000       1.00800           0
     28677 TIP3     6701     TIP3     OH2      OT      -0.834000       15.9994           0
     28678 TIP3     6701     TIP3     H1       HT       0.417000       1.00800           0
     28679 TIP3     6701     TIP3     H2       HT       0.417000       1.00800           0
     28680 TIP3     6702     TIP3     OH2      OT      -0.834000       15.9994           0
     28681 TIP3     6702     TIP3     H1       HT       0.417000       1.00800           0
     28682 TIP3     6702     TIP3     H2       HT       0.417000       1.00800           0
     28683 TIP3     6703     TIP3     OH2      OT      -0.834000       15.9994           0
     28684 TIP3     6703     TIP3     H1       HT       0.417000       1.00800           0
     28685 TIP3     6703     TIP3     H2       HT       0.417000       1.00800           0
     28686 TIP3     6704     TIP3     OH2      OT      -0.834000       15.9994           0
     28687 TIP3     6704     TIP3     H1       HT       0.417000       1.00800           0
     28688 TIP3     6704     TIP3     H2       HT       0.417000       1.00800           0
     28689 TIP3     6705     TIP3     OH2      OT      -0.834000       15.9994           0
     28690 TIP3     6705     TIP3     H1       HT       0.417000       1.00800           0
     28691 TIP3     6705     TIP3     H2       HT       0.417000       1.00800           0
     28692 TIP3     6706     TIP3     OH2      OT      -0.834000       15.9994           0
     28693 TIP3     6706     TIP3     H1       HT       0.417000       1.00800           0
     28694 TIP3     6706     TIP3     H2       HT       0.417000       1.00800           0
     28695 TIP3     6707     TIP3     OH2      OT      -0.834000       15.9994           0
     28696 TIP3     6707     TIP3     H1       HT       0.417000       1.00800           0
     28697 TIP3     6707     TIP3     H2       HT       0.417000       1.00800           0
     28698 TIP3     6708     TIP3     OH2      OT      -0.834000       15.9994           0
     28699 TIP3     6708     TIP3     H1       HT       0.417000       1.00800           0
     28700 TIP3     6708     TIP3     H2       HT       0.417000       1.00800           0
     28701 TIP3     6709     TIP3     OH2      OT      -0.834000       15.9994           0
     28702 TIP3     6709     TIP3     H1       HT       0.417000       1.00800           0
     28703 TIP3     6709     TIP3     H2       HT       0.417000       1.00800           0
     28704 TIP3     6710     TIP3     OH2      OT      -0.834000       15.9994           0
     28705 TIP3     6710     TIP3     H1       HT       0.417000       1.00800           0
     28706 TIP3     6710     TIP3     H2       HT       0.417000       1.00800           0
     28707 TIP3     6711     TIP3     OH2      OT      -0.834000       15.9994           0
     28708 TIP3     6711     TIP3     H1       HT       0.417000       1.00800           0
     28709 TIP3     6711     TIP3     H2       HT       0.417000       1.00800           0
     28710 TIP3     6712     TIP3     OH2      OT      -0.834000       15.9994           0
     28711 TIP3     6712     TIP3     H1       HT       0.417000       1.00800           0
     28712 TIP3     6712     TIP3     H2       HT       0.417000       1.00800           0
     28713 TIP3     6713     TIP3     OH2      OT      -0.834000       15.9994           0
     28714 TIP3     6713     TIP3     H1       HT       0.417000       1.00800           0
     28715 TIP3     6713     TIP3     H2       HT       0.417000       1.00800           0
     28716 TIP3     6714     TIP3     OH2      OT      -0.834000       15.9994           0
     28717 TIP3     6714     TIP3     H1       HT       0.417000       1.00800           0
     28718 TIP3     6714     TIP3     H2       HT       0.417000       1.00800           0
     28719 TIP3     6715     TIP3     OH2      OT      -0.834000       15.9994           0
     28720 TIP3     6715     TIP3     H1       HT       0.417000       1.00800           0
     28721 TIP3     6715     TIP3     H2       HT       0.417000       1.00800           0
     28722 TIP3     6716     TIP3     OH2      OT      -0.834000       15.9994           0
     28723 TIP3     6716     TIP3     H1       HT       0.417000       1.00800           0
     28724 TIP3     6716     TIP3     H2       HT       0.417000       1.00800           0
     28725 TIP3     6717     TIP3     OH2      OT      -0.834000       15.9994           0
     28726 TIP3     6717     TIP3     H1       HT       0.417000       1.00800           0
     28727 TIP3     6717     TIP3     H2       HT       0.417000       1.00800           0
     28728 TIP3     6718     TIP3     OH2      OT      -0.834000       15.9994           0
     28729 TIP3     6718     TIP3     H1       HT       0.417000       1.00800           0
     28730 TIP3     6718     TIP3     H2       HT       0.417000       1.00800           0
     28731 TIP3     6719     TIP3     OH2      OT      -0.834000       15.9994           0
     28732 TIP3     6719     TIP3     H1       HT       0.417000       1.00800           0
     28733 TIP3     6719     TIP3     H2       HT       0.417000       1.00800           0
     28734 TIP3     6720     TIP3     OH2      OT      -0.834000       15.9994           0
     28735 TIP3     6720     TIP3     H1       HT       0.417000       1.00800           0
     28736 TIP3     6720     TIP3     H2       HT       0.417000       1.00800           0
     28737 TIP3     6721     TIP3     OH2      OT      -0.834000       15.9994           0
     28738 TIP3     6721     TIP3     H1       HT       0.417000       1.00800           0
     28739 TIP3     6721     TIP3     H2       HT       0.417000       1.00800           0
     28740 TIP3     6722     TIP3     OH2      OT      -0.834000       15.9994           0
     28741 TIP3     6722     TIP3     H1       HT       0.417000       1.00800           0
     28742 TIP3     6722     TIP3     H2       HT       0.417000       1.00800           0
     28743 TIP3     6723     TIP3     OH2      OT      -0.834000       15.9994           0
     28744 TIP3     6723     TIP3     H1       HT       0.417000       1.00800           0
     28745 TIP3     6723     TIP3     H2       HT       0.417000       1.00800           0
     28746 TIP3     6724     TIP3     OH2      OT      -0.834000       15.9994           0
     28747 TIP3     6724     TIP3     H1       HT       0.417000       1.00800           0
     28748 TIP3     6724     TIP3     H2       HT       0.417000       1.00800           0
     28749 TIP3     6725     TIP3     OH2      OT      -0.834000       15.9994           0
     28750 TIP3     6725     TIP3     H1       HT       0.417000       1.00800           0
     28751 TIP3     6725     TIP3     H2       HT       0.417000       1.00800           0
     28752 TIP3     6726     TIP3     OH2      OT      -0.834000       15.9994           0
     28753 TIP3     6726     TIP3     H1       HT       0.417000       1.00800           0
     28754 TIP3     6726     TIP3     H2       HT       0.417000       1.00800           0
     28755 TIP3     6727     TIP3     OH2      OT      -0.834000       15.9994           0
     28756 TIP3     6727     TIP3     H1       HT       0.417000       1.00800           0
     28757 TIP3     6727     TIP3     H2       HT       0.417000       1.00800           0
     28758 TIP3     6728     TIP3     OH2      OT      -0.834000       15.9994           0
     28759 TIP3     6728     TIP3     H1       HT       0.417000       1.00800           0
     28760 TIP3     6728     TIP3     H2       HT       0.417000       1.00800           0
     28761 TIP3     6729     TIP3     OH2      OT      -0.834000       15.9994           0
     28762 TIP3     6729     TIP3     H1       HT       0.417000       1.00800           0
     28763 TIP3     6729     TIP3     H2       HT       0.417000       1.00800           0
     28764 TIP3     6730     TIP3     OH2      OT      -0.834000       15.9994           0
     28765 TIP3     6730     TIP3     H1       HT       0.417000       1.00800           0
     28766 TIP3     6730     TIP3     H2       HT       0.417000       1.00800           0
     28767 TIP3     6731     TIP3     OH2      OT      -0.834000       15.9994           0
     28768 TIP3     6731     TIP3     H1       HT       0.417000       1.00800           0
     28769 TIP3     6731     TIP3     H2       HT       0.417000       1.00800           0
     28770 TIP3     6732     TIP3     OH2      OT      -0.834000       15.9994           0
     28771 TIP3     6732     TIP3     H1       HT       0.417000       1.00800           0
     28772 TIP3     6732     TIP3     H2       HT       0.417000       1.00800           0
     28773 TIP3     6733     TIP3     OH2      OT      -0.834000       15.9994           0
     28774 TIP3     6733     TIP3     H1       HT       0.417000       1.00800           0
     28775 TIP3     6733     TIP3     H2       HT       0.417000       1.00800           0
     28776 TIP3     6734     TIP3     OH2      OT      -0.834000       15.9994           0
     28777 TIP3     6734     TIP3     H1       HT       0.417000       1.00800           0
     28778 TIP3     6734     TIP3     H2       HT       0.417000       1.00800           0
     28779 TIP3     6735     TIP3     OH2      OT      -0.834000       15.9994           0
     28780 TIP3     6735     TIP3     H1       HT       0.417000       1.00800           0
     28781 TIP3     6735     TIP3     H2       HT       0.417000       1.00800           0
     28782 TIP3     6736     TIP3     OH2      OT      -0.834000       15.9994           0
     28783 TIP3     6736     TIP3     H1       HT       0.417000       1.00800           0
     28784 TIP3     6736     TIP3     H2       HT       0.417000       1.00800           0
     28785 TIP3     6737     TIP3     OH2      OT      -0.834000       15.9994           0
     28786 TIP3     6737     TIP3     H1       HT       0.417000       1.00800           0
     28787 TIP3     6737     TIP3     H2       HT       0.417000       1.00800           0
     28788 TIP3     6738     TIP3     OH2      OT      -0.834000       15.9994           0
     28789 TIP3     6738     TIP3     H1       HT       0.417000       1.00800           0
     28790 TIP3     6738     TIP3     H2       HT       0.417000       1.00800           0
     28791 TIP3     6739     TIP3     OH2      OT      -0.834000       15.9994           0
     28792 TIP3     6739     TIP3     H1       HT       0.417000       1.00800           0
     28793 TIP3     6739     TIP3     H2       HT       0.417000       1.00800           0
     28794 TIP3     6740     TIP3     OH2      OT      -0.834000       15.9994           0
     28795 TIP3     6740     TIP3     H1       HT       0.417000       1.00800           0
     28796 TIP3     6740     TIP3     H2       HT       0.417000       1.00800           0
     28797 TIP3     6741     TIP3     OH2      OT      -0.834000       15.9994           0
     28798 TIP3     6741     TIP3     H1       HT       0.417000       1.00800           0
     28799 TIP3     6741     TIP3     H2       HT       0.417000       1.00800           0
     28800 TIP3     6742     TIP3     OH2      OT      -0.834000       15.9994           0
     28801 TIP3     6742     TIP3     H1       HT       0.417000       1.00800           0
     28802 TIP3     6742     TIP3     H2       HT       0.417000       1.00800           0
     28803 TIP3     6743     TIP3     OH2      OT      -0.834000       15.9994           0
     28804 TIP3     6743     TIP3     H1       HT       0.417000       1.00800           0
     28805 TIP3     6743     TIP3     H2       HT       0.417000       1.00800           0
     28806 TIP3     6744     TIP3     OH2      OT      -0.834000       15.9994           0
     28807 TIP3     6744     TIP3     H1       HT       0.417000       1.00800           0
     28808 TIP3     6744     TIP3     H2       HT       0.417000       1.00800           0
     28809 TIP3     6745     TIP3     OH2      OT      -0.834000       15.9994           0
     28810 TIP3     6745     TIP3     H1       HT       0.417000       1.00800           0
     28811 TIP3     6745     TIP3     H2       HT       0.417000       1.00800           0
     28812 TIP3     6746     TIP3     OH2      OT      -0.834000       15.9994           0
     28813 TIP3     6746     TIP3     H1       HT       0.417000       1.00800           0
     28814 TIP3     6746     TIP3     H2       HT       0.417000       1.00800           0
     28815 TIP3     6747     TIP3     OH2      OT      -0.834000       15.9994           0
     28816 TIP3     6747     TIP3     H1       HT       0.417000       1.00800           0
     28817 TIP3     6747     TIP3     H2       HT       0.417000       1.00800           0
     28818 TIP3     6748     TIP3     OH2      OT      -0.834000       15.9994           0
     28819 TIP3     6748     TIP3     H1       HT       0.417000       1.00800           0
     28820 TIP3     6748     TIP3     H2       HT       0.417000       1.00800           0
     28821 TIP3     6749     TIP3     OH2      OT      -0.834000       15.9994           0
     28822 TIP3     6749     TIP3     H1       HT       0.417000       1.00800           0
     28823 TIP3     6749     TIP3     H2       HT       0.417000       1.00800           0
     28824 TIP3     6750     TIP3     OH2      OT      -0.834000       15.9994           0
     28825 TIP3     6750     TIP3     H1       HT       0.417000       1.00800           0
     28826 TIP3     6750     TIP3     H2       HT       0.417000       1.00800           0
     28827 TIP3     6751     TIP3     OH2      OT      -0.834000       15.9994           0
     28828 TIP3     6751     TIP3     H1       HT       0.417000       1.00800           0
     28829 TIP3     6751     TIP3     H2       HT       0.417000       1.00800           0
     28830 TIP3     6752     TIP3     OH2      OT      -0.834000       15.9994           0
     28831 TIP3     6752     TIP3     H1       HT       0.417000       1.00800           0
     28832 TIP3     6752     TIP3     H2       HT       0.417000       1.00800           0
     28833 TIP3     6753     TIP3     OH2      OT      -0.834000       15.9994           0
     28834 TIP3     6753     TIP3     H1       HT       0.417000       1.00800           0
     28835 TIP3     6753     TIP3     H2       HT       0.417000       1.00800           0
     28836 TIP3     6754     TIP3     OH2      OT      -0.834000       15.9994           0
     28837 TIP3     6754     TIP3     H1       HT       0.417000       1.00800           0
     28838 TIP3     6754     TIP3     H2       HT       0.417000       1.00800           0
     28839 TIP3     6755     TIP3     OH2      OT      -0.834000       15.9994           0
     28840 TIP3     6755     TIP3     H1       HT       0.417000       1.00800           0
     28841 TIP3     6755     TIP3     H2       HT       0.417000       1.00800           0
     28842 TIP3     6756     TIP3     OH2      OT      -0.834000       15.9994           0
     28843 TIP3     6756     TIP3     H1       HT       0.417000       1.00800           0
     28844 TIP3     6756     TIP3     H2       HT       0.417000       1.00800           0
     28845 TIP3     6757     TIP3     OH2      OT      -0.834000       15.9994           0
     28846 TIP3     6757     TIP3     H1       HT       0.417000       1.00800           0
     28847 TIP3     6757     TIP3     H2       HT       0.417000       1.00800           0
     28848 TIP3     6758     TIP3     OH2      OT      -0.834000       15.9994           0
     28849 TIP3     6758     TIP3     H1       HT       0.417000       1.00800           0
     28850 TIP3     6758     TIP3     H2       HT       0.417000       1.00800           0
     28851 TIP3     6759     TIP3     OH2      OT      -0.834000       15.9994           0
     28852 TIP3     6759     TIP3     H1       HT       0.417000       1.00800           0
     28853 TIP3     6759     TIP3     H2       HT       0.417000       1.00800           0
     28854 TIP3     6760     TIP3     OH2      OT      -0.834000       15.9994           0
     28855 TIP3     6760     TIP3     H1       HT       0.417000       1.00800           0
     28856 TIP3     6760     TIP3     H2       HT       0.417000       1.00800           0
     28857 TIP3     6761     TIP3     OH2      OT      -0.834000       15.9994           0
     28858 TIP3     6761     TIP3     H1       HT       0.417000       1.00800           0
     28859 TIP3     6761     TIP3     H2       HT       0.417000       1.00800           0
     28860 TIP3     6762     TIP3     OH2      OT      -0.834000       15.9994           0
     28861 TIP3     6762     TIP3     H1       HT       0.417000       1.00800           0
     28862 TIP3     6762     TIP3     H2       HT       0.417000       1.00800           0
     28863 TIP3     6763     TIP3     OH2      OT      -0.834000       15.9994           0
     28864 TIP3     6763     TIP3     H1       HT       0.417000       1.00800           0
     28865 TIP3     6763     TIP3     H2       HT       0.417000       1.00800           0
     28866 TIP3     6764     TIP3     OH2      OT      -0.834000       15.9994           0
     28867 TIP3     6764     TIP3     H1       HT       0.417000       1.00800           0
     28868 TIP3     6764     TIP3     H2       HT       0.417000       1.00800           0
     28869 TIP3     6765     TIP3     OH2      OT      -0.834000       15.9994           0
     28870 TIP3     6765     TIP3     H1       HT       0.417000       1.00800           0
     28871 TIP3     6765     TIP3     H2       HT       0.417000       1.00800           0
     28872 TIP3     6766     TIP3     OH2      OT      -0.834000       15.9994           0
     28873 TIP3     6766     TIP3     H1       HT       0.417000       1.00800           0
     28874 TIP3     6766     TIP3     H2       HT       0.417000       1.00800           0
     28875 TIP3     6767     TIP3     OH2      OT      -0.834000       15.9994           0
     28876 TIP3     6767     TIP3     H1       HT       0.417000       1.00800           0
     28877 TIP3     6767     TIP3     H2       HT       0.417000       1.00800           0
     28878 TIP3     6768     TIP3     OH2      OT      -0.834000       15.9994           0
     28879 TIP3     6768     TIP3     H1       HT       0.417000       1.00800           0
     28880 TIP3     6768     TIP3     H2       HT       0.417000       1.00800           0
     28881 TIP3     6769     TIP3     OH2      OT      -0.834000       15.9994           0
     28882 TIP3     6769     TIP3     H1       HT       0.417000       1.00800           0
     28883 TIP3     6769     TIP3     H2       HT       0.417000       1.00800           0
     28884 TIP3     6770     TIP3     OH2      OT      -0.834000       15.9994           0
     28885 TIP3     6770     TIP3     H1       HT       0.417000       1.00800           0
     28886 TIP3     6770     TIP3     H2       HT       0.417000       1.00800           0
     28887 TIP3     6771     TIP3     OH2      OT      -0.834000       15.9994           0
     28888 TIP3     6771     TIP3     H1       HT       0.417000       1.00800           0
     28889 TIP3     6771     TIP3     H2       HT       0.417000       1.00800           0
     28890 TIP3     6772     TIP3     OH2      OT      -0.834000       15.9994           0
     28891 TIP3     6772     TIP3     H1       HT       0.417000       1.00800           0
     28892 TIP3     6772     TIP3     H2       HT       0.417000       1.00800           0
     28893 TIP3     6773     TIP3     OH2      OT      -0.834000       15.9994           0
     28894 TIP3     6773     TIP3     H1       HT       0.417000       1.00800           0
     28895 TIP3     6773     TIP3     H2       HT       0.417000       1.00800           0
     28896 TIP3     6774     TIP3     OH2      OT      -0.834000       15.9994           0
     28897 TIP3     6774     TIP3     H1       HT       0.417000       1.00800           0
     28898 TIP3     6774     TIP3     H2       HT       0.417000       1.00800           0
     28899 TIP3     6775     TIP3     OH2      OT      -0.834000       15.9994           0
     28900 TIP3     6775     TIP3     H1       HT       0.417000       1.00800           0
     28901 TIP3     6775     TIP3     H2       HT       0.417000       1.00800           0
     28902 TIP3     6776     TIP3     OH2      OT      -0.834000       15.9994           0
     28903 TIP3     6776     TIP3     H1       HT       0.417000       1.00800           0
     28904 TIP3     6776     TIP3     H2       HT       0.417000       1.00800           0
     28905 TIP3     6777     TIP3     OH2      OT      -0.834000       15.9994           0
     28906 TIP3     6777     TIP3     H1       HT       0.417000       1.00800           0
     28907 TIP3     6777     TIP3     H2       HT       0.417000       1.00800           0
     28908 TIP3     6778     TIP3     OH2      OT      -0.834000       15.9994           0
     28909 TIP3     6778     TIP3     H1       HT       0.417000       1.00800           0
     28910 TIP3     6778     TIP3     H2       HT       0.417000       1.00800           0
     28911 TIP3     6779     TIP3     OH2      OT      -0.834000       15.9994           0
     28912 TIP3     6779     TIP3     H1       HT       0.417000       1.00800           0
     28913 TIP3     6779     TIP3     H2       HT       0.417000       1.00800           0
     28914 TIP3     6780     TIP3     OH2      OT      -0.834000       15.9994           0
     28915 TIP3     6780     TIP3     H1       HT       0.417000       1.00800           0
     28916 TIP3     6780     TIP3     H2       HT       0.417000       1.00800           0
     28917 TIP3     6781     TIP3     OH2      OT      -0.834000       15.9994           0
     28918 TIP3     6781     TIP3     H1       HT       0.417000       1.00800           0
     28919 TIP3     6781     TIP3     H2       HT       0.417000       1.00800           0
     28920 TIP3     6782     TIP3     OH2      OT      -0.834000       15.9994           0
     28921 TIP3     6782     TIP3     H1       HT       0.417000       1.00800           0
     28922 TIP3     6782     TIP3     H2       HT       0.417000       1.00800           0
     28923 TIP3     6783     TIP3     OH2      OT      -0.834000       15.9994           0
     28924 TIP3     6783     TIP3     H1       HT       0.417000       1.00800           0
     28925 TIP3     6783     TIP3     H2       HT       0.417000       1.00800           0
     28926 TIP3     6784     TIP3     OH2      OT      -0.834000       15.9994           0
     28927 TIP3     6784     TIP3     H1       HT       0.417000       1.00800           0
     28928 TIP3     6784     TIP3     H2       HT       0.417000       1.00800           0
     28929 TIP3     6785     TIP3     OH2      OT      -0.834000       15.9994           0
     28930 TIP3     6785     TIP3     H1       HT       0.417000       1.00800           0
     28931 TIP3     6785     TIP3     H2       HT       0.417000       1.00800           0
     28932 TIP3     6786     TIP3     OH2      OT      -0.834000       15.9994           0
     28933 TIP3     6786     TIP3     H1       HT       0.417000       1.00800           0
     28934 TIP3     6786     TIP3     H2       HT       0.417000       1.00800           0
     28935 TIP3     6787     TIP3     OH2      OT      -0.834000       15.9994           0
     28936 TIP3     6787     TIP3     H1       HT       0.417000       1.00800           0
     28937 TIP3     6787     TIP3     H2       HT       0.417000       1.00800           0
     28938 TIP3     6788     TIP3     OH2      OT      -0.834000       15.9994           0
     28939 TIP3     6788     TIP3     H1       HT       0.417000       1.00800           0
     28940 TIP3     6788     TIP3     H2       HT       0.417000       1.00800           0
     28941 TIP3     6789     TIP3     OH2      OT      -0.834000       15.9994           0
     28942 TIP3     6789     TIP3     H1       HT       0.417000       1.00800           0
     28943 TIP3     6789     TIP3     H2       HT       0.417000       1.00800           0
     28944 TIP3     6790     TIP3     OH2      OT      -0.834000       15.9994           0
     28945 TIP3     6790     TIP3     H1       HT       0.417000       1.00800           0
     28946 TIP3     6790     TIP3     H2       HT       0.417000       1.00800           0
     28947 TIP3     6791     TIP3     OH2      OT      -0.834000       15.9994           0
     28948 TIP3     6791     TIP3     H1       HT       0.417000       1.00800           0
     28949 TIP3     6791     TIP3     H2       HT       0.417000       1.00800           0
     28950 TIP3     6792     TIP3     OH2      OT      -0.834000       15.9994           0
     28951 TIP3     6792     TIP3     H1       HT       0.417000       1.00800           0
     28952 TIP3     6792     TIP3     H2       HT       0.417000       1.00800           0
     28953 TIP3     6793     TIP3     OH2      OT      -0.834000       15.9994           0
     28954 TIP3     6793     TIP3     H1       HT       0.417000       1.00800           0
     28955 TIP3     6793     TIP3     H2       HT       0.417000       1.00800           0
     28956 TIP3     6794     TIP3     OH2      OT      -0.834000       15.9994           0
     28957 TIP3     6794     TIP3     H1       HT       0.417000       1.00800           0
     28958 TIP3     6794     TIP3     H2       HT       0.417000       1.00800           0
     28959 TIP3     6795     TIP3     OH2      OT      -0.834000       15.9994           0
     28960 TIP3     6795     TIP3     H1       HT       0.417000       1.00800           0
     28961 TIP3     6795     TIP3     H2       HT       0.417000       1.00800           0
     28962 TIP3     6796     TIP3     OH2      OT      -0.834000       15.9994           0
     28963 TIP3     6796     TIP3     H1       HT       0.417000       1.00800           0
     28964 TIP3     6796     TIP3     H2       HT       0.417000       1.00800           0
     28965 TIP3     6797     TIP3     OH2      OT      -0.834000       15.9994           0
     28966 TIP3     6797     TIP3     H1       HT       0.417000       1.00800           0
     28967 TIP3     6797     TIP3     H2       HT       0.417000       1.00800           0
     28968 TIP3     6798     TIP3     OH2      OT      -0.834000       15.9994           0
     28969 TIP3     6798     TIP3     H1       HT       0.417000       1.00800           0
     28970 TIP3     6798     TIP3     H2       HT       0.417000       1.00800           0
     28971 TIP3     6799     TIP3     OH2      OT      -0.834000       15.9994           0
     28972 TIP3     6799     TIP3     H1       HT       0.417000       1.00800           0
     28973 TIP3     6799     TIP3     H2       HT       0.417000       1.00800           0
     28974 TIP3     6800     TIP3     OH2      OT      -0.834000       15.9994           0
     28975 TIP3     6800     TIP3     H1       HT       0.417000       1.00800           0
     28976 TIP3     6800     TIP3     H2       HT       0.417000       1.00800           0
     28977 TIP3     6801     TIP3     OH2      OT      -0.834000       15.9994           0
     28978 TIP3     6801     TIP3     H1       HT       0.417000       1.00800           0
     28979 TIP3     6801     TIP3     H2       HT       0.417000       1.00800           0
     28980 TIP3     6802     TIP3     OH2      OT      -0.834000       15.9994           0
     28981 TIP3     6802     TIP3     H1       HT       0.417000       1.00800           0
     28982 TIP3     6802     TIP3     H2       HT       0.417000       1.00800           0
     28983 TIP3     6803     TIP3     OH2      OT      -0.834000       15.9994           0
     28984 TIP3     6803     TIP3     H1       HT       0.417000       1.00800           0
     28985 TIP3     6803     TIP3     H2       HT       0.417000       1.00800           0
     28986 TIP3     6804     TIP3     OH2      OT      -0.834000       15.9994           0
     28987 TIP3     6804     TIP3     H1       HT       0.417000       1.00800           0
     28988 TIP3     6804     TIP3     H2       HT       0.417000       1.00800           0
     28989 TIP3     6805     TIP3     OH2      OT      -0.834000       15.9994           0
     28990 TIP3     6805     TIP3     H1       HT       0.417000       1.00800           0
     28991 TIP3     6805     TIP3     H2       HT       0.417000       1.00800           0
     28992 TIP3     6806     TIP3     OH2      OT      -0.834000       15.9994           0
     28993 TIP3     6806     TIP3     H1       HT       0.417000       1.00800           0
     28994 TIP3     6806     TIP3     H2       HT       0.417000       1.00800           0
     28995 TIP3     6807     TIP3     OH2      OT      -0.834000       15.9994           0
     28996 TIP3     6807     TIP3     H1       HT       0.417000       1.00800           0
     28997 TIP3     6807     TIP3     H2       HT       0.417000       1.00800           0
     28998 TIP3     6808     TIP3     OH2      OT      -0.834000       15.9994           0
     28999 TIP3     6808     TIP3     H1       HT       0.417000       1.00800           0
     29000 TIP3     6808     TIP3     H2       HT       0.417000       1.00800           0
     29001 TIP3     6809     TIP3     OH2      OT      -0.834000       15.9994           0
     29002 TIP3     6809     TIP3     H1       HT       0.417000       1.00800           0
     29003 TIP3     6809     TIP3     H2       HT       0.417000       1.00800           0
     29004 TIP3     6810     TIP3     OH2      OT      -0.834000       15.9994           0
     29005 TIP3     6810     TIP3     H1       HT       0.417000       1.00800           0
     29006 TIP3     6810     TIP3     H2       HT       0.417000       1.00800           0
     29007 TIP3     6811     TIP3     OH2      OT      -0.834000       15.9994           0
     29008 TIP3     6811     TIP3     H1       HT       0.417000       1.00800           0
     29009 TIP3     6811     TIP3     H2       HT       0.417000       1.00800           0
     29010 TIP3     6812     TIP3     OH2      OT      -0.834000       15.9994           0
     29011 TIP3     6812     TIP3     H1       HT       0.417000       1.00800           0
     29012 TIP3     6812     TIP3     H2       HT       0.417000       1.00800           0
     29013 TIP3     6813     TIP3     OH2      OT      -0.834000       15.9994           0
     29014 TIP3     6813     TIP3     H1       HT       0.417000       1.00800           0
     29015 TIP3     6813     TIP3     H2       HT       0.417000       1.00800           0
     29016 TIP3     6814     TIP3     OH2      OT      -0.834000       15.9994           0
     29017 TIP3     6814     TIP3     H1       HT       0.417000       1.00800           0
     29018 TIP3     6814     TIP3     H2       HT       0.417000       1.00800           0
     29019 TIP3     6815     TIP3     OH2      OT      -0.834000       15.9994           0
     29020 TIP3     6815     TIP3     H1       HT       0.417000       1.00800           0
     29021 TIP3     6815     TIP3     H2       HT       0.417000       1.00800           0
     29022 TIP3     6816     TIP3     OH2      OT      -0.834000       15.9994           0
     29023 TIP3     6816     TIP3     H1       HT       0.417000       1.00800           0
     29024 TIP3     6816     TIP3     H2       HT       0.417000       1.00800           0
     29025 TIP3     6817     TIP3     OH2      OT      -0.834000       15.9994           0
     29026 TIP3     6817     TIP3     H1       HT       0.417000       1.00800           0
     29027 TIP3     6817     TIP3     H2       HT       0.417000       1.00800           0
     29028 TIP3     6818     TIP3     OH2      OT      -0.834000       15.9994           0
     29029 TIP3     6818     TIP3     H1       HT       0.417000       1.00800           0
     29030 TIP3     6818     TIP3     H2       HT       0.417000       1.00800           0
     29031 TIP3     6819     TIP3     OH2      OT      -0.834000       15.9994           0
     29032 TIP3     6819     TIP3     H1       HT       0.417000       1.00800           0
     29033 TIP3     6819     TIP3     H2       HT       0.417000       1.00800           0
     29034 TIP3     6820     TIP3     OH2      OT      -0.834000       15.9994           0
     29035 TIP3     6820     TIP3     H1       HT       0.417000       1.00800           0
     29036 TIP3     6820     TIP3     H2       HT       0.417000       1.00800           0
     29037 TIP3     6821     TIP3     OH2      OT      -0.834000       15.9994           0
     29038 TIP3     6821     TIP3     H1       HT       0.417000       1.00800           0
     29039 TIP3     6821     TIP3     H2       HT       0.417000       1.00800           0
     29040 TIP3     6822     TIP3     OH2      OT      -0.834000       15.9994           0
     29041 TIP3     6822     TIP3     H1       HT       0.417000       1.00800           0
     29042 TIP3     6822     TIP3     H2       HT       0.417000       1.00800           0
     29043 TIP3     6823     TIP3     OH2      OT      -0.834000       15.9994           0
     29044 TIP3     6823     TIP3     H1       HT       0.417000       1.00800           0
     29045 TIP3     6823     TIP3     H2       HT       0.417000       1.00800           0
     29046 TIP3     6824     TIP3     OH2      OT      -0.834000       15.9994           0
     29047 TIP3     6824     TIP3     H1       HT       0.417000       1.00800           0
     29048 TIP3     6824     TIP3     H2       HT       0.417000       1.00800           0
     29049 TIP3     6825     TIP3     OH2      OT      -0.834000       15.9994           0
     29050 TIP3     6825     TIP3     H1       HT       0.417000       1.00800           0
     29051 TIP3     6825     TIP3     H2       HT       0.417000       1.00800           0
     29052 TIP3     6826     TIP3     OH2      OT      -0.834000       15.9994           0
     29053 TIP3     6826     TIP3     H1       HT       0.417000       1.00800           0
     29054 TIP3     6826     TIP3     H2       HT       0.417000       1.00800           0
     29055 TIP3     6827     TIP3     OH2      OT      -0.834000       15.9994           0
     29056 TIP3     6827     TIP3     H1       HT       0.417000       1.00800           0
     29057 TIP3     6827     TIP3     H2       HT       0.417000       1.00800           0
     29058 TIP3     6828     TIP3     OH2      OT      -0.834000       15.9994           0
     29059 TIP3     6828     TIP3     H1       HT       0.417000       1.00800           0
     29060 TIP3     6828     TIP3     H2       HT       0.417000       1.00800           0
     29061 TIP3     6829     TIP3     OH2      OT      -0.834000       15.9994           0
     29062 TIP3     6829     TIP3     H1       HT       0.417000       1.00800           0
     29063 TIP3     6829     TIP3     H2       HT       0.417000       1.00800           0
     29064 TIP3     6830     TIP3     OH2      OT      -0.834000       15.9994           0
     29065 TIP3     6830     TIP3     H1       HT       0.417000       1.00800           0
     29066 TIP3     6830     TIP3     H2       HT       0.417000       1.00800           0
     29067 TIP3     6831     TIP3     OH2      OT      -0.834000       15.9994           0
     29068 TIP3     6831     TIP3     H1       HT       0.417000       1.00800           0
     29069 TIP3     6831     TIP3     H2       HT       0.417000       1.00800           0
     29070 TIP3     6832     TIP3     OH2      OT      -0.834000       15.9994           0
     29071 TIP3     6832     TIP3     H1       HT       0.417000       1.00800           0
     29072 TIP3     6832     TIP3     H2       HT       0.417000       1.00800           0
     29073 TIP3     6833     TIP3     OH2      OT      -0.834000       15.9994           0
     29074 TIP3     6833     TIP3     H1       HT       0.417000       1.00800           0
     29075 TIP3     6833     TIP3     H2       HT       0.417000       1.00800           0
     29076 TIP3     6834     TIP3     OH2      OT      -0.834000       15.9994           0
     29077 TIP3     6834     TIP3     H1       HT       0.417000       1.00800           0
     29078 TIP3     6834     TIP3     H2       HT       0.417000       1.00800           0
     29079 TIP3     6835     TIP3     OH2      OT      -0.834000       15.9994           0
     29080 TIP3     6835     TIP3     H1       HT       0.417000       1.00800           0
     29081 TIP3     6835     TIP3     H2       HT       0.417000       1.00800           0
     29082 TIP3     6836     TIP3     OH2      OT      -0.834000       15.9994           0
     29083 TIP3     6836     TIP3     H1       HT       0.417000       1.00800           0
     29084 TIP3     6836     TIP3     H2       HT       0.417000       1.00800           0
     29085 TIP3     6837     TIP3     OH2      OT      -0.834000       15.9994           0
     29086 TIP3     6837     TIP3     H1       HT       0.417000       1.00800           0
     29087 TIP3     6837     TIP3     H2       HT       0.417000       1.00800           0
     29088 TIP3     6838     TIP3     OH2      OT      -0.834000       15.9994           0
     29089 TIP3     6838     TIP3     H1       HT       0.417000       1.00800           0
     29090 TIP3     6838     TIP3     H2       HT       0.417000       1.00800           0
     29091 TIP3     6839     TIP3     OH2      OT      -0.834000       15.9994           0
     29092 TIP3     6839     TIP3     H1       HT       0.417000       1.00800           0
     29093 TIP3     6839     TIP3     H2       HT       0.417000       1.00800           0
     29094 TIP3     6840     TIP3     OH2      OT      -0.834000       15.9994           0
     29095 TIP3     6840     TIP3     H1       HT       0.417000       1.00800           0
     29096 TIP3     6840     TIP3     H2       HT       0.417000       1.00800           0
     29097 TIP3     6841     TIP3     OH2      OT      -0.834000       15.9994           0
     29098 TIP3     6841     TIP3     H1       HT       0.417000       1.00800           0
     29099 TIP3     6841     TIP3     H2       HT       0.417000       1.00800           0
     29100 TIP3     6842     TIP3     OH2      OT      -0.834000       15.9994           0
     29101 TIP3     6842     TIP3     H1       HT       0.417000       1.00800           0
     29102 TIP3     6842     TIP3     H2       HT       0.417000       1.00800           0
     29103 TIP3     6843     TIP3     OH2      OT      -0.834000       15.9994           0
     29104 TIP3     6843     TIP3     H1       HT       0.417000       1.00800           0
     29105 TIP3     6843     TIP3     H2       HT       0.417000       1.00800           0
     29106 TIP3     6844     TIP3     OH2      OT      -0.834000       15.9994           0
     29107 TIP3     6844     TIP3     H1       HT       0.417000       1.00800           0
     29108 TIP3     6844     TIP3     H2       HT       0.417000       1.00800           0
     29109 TIP3     6845     TIP3     OH2      OT      -0.834000       15.9994           0
     29110 TIP3     6845     TIP3     H1       HT       0.417000       1.00800           0
     29111 TIP3     6845     TIP3     H2       HT       0.417000       1.00800           0
     29112 TIP3     6846     TIP3     OH2      OT      -0.834000       15.9994           0
     29113 TIP3     6846     TIP3     H1       HT       0.417000       1.00800           0
     29114 TIP3     6846     TIP3     H2       HT       0.417000       1.00800           0
     29115 TIP3     6847     TIP3     OH2      OT      -0.834000       15.9994           0
     29116 TIP3     6847     TIP3     H1       HT       0.417000       1.00800           0
     29117 TIP3     6847     TIP3     H2       HT       0.417000       1.00800           0
     29118 TIP3     6848     TIP3     OH2      OT      -0.834000       15.9994           0
     29119 TIP3     6848     TIP3     H1       HT       0.417000       1.00800           0
     29120 TIP3     6848     TIP3     H2       HT       0.417000       1.00800           0
     29121 TIP3     6849     TIP3     OH2      OT      -0.834000       15.9994           0
     29122 TIP3     6849     TIP3     H1       HT       0.417000       1.00800           0
     29123 TIP3     6849     TIP3     H2       HT       0.417000       1.00800           0
     29124 TIP3     6850     TIP3     OH2      OT      -0.834000       15.9994           0
     29125 TIP3     6850     TIP3     H1       HT       0.417000       1.00800           0
     29126 TIP3     6850     TIP3     H2       HT       0.417000       1.00800           0
     29127 TIP3     6851     TIP3     OH2      OT      -0.834000       15.9994           0
     29128 TIP3     6851     TIP3     H1       HT       0.417000       1.00800           0
     29129 TIP3     6851     TIP3     H2       HT       0.417000       1.00800           0
     29130 TIP3     6852     TIP3     OH2      OT      -0.834000       15.9994           0
     29131 TIP3     6852     TIP3     H1       HT       0.417000       1.00800           0
     29132 TIP3     6852     TIP3     H2       HT       0.417000       1.00800           0
     29133 TIP3     6853     TIP3     OH2      OT      -0.834000       15.9994           0
     29134 TIP3     6853     TIP3     H1       HT       0.417000       1.00800           0
     29135 TIP3     6853     TIP3     H2       HT       0.417000       1.00800           0
     29136 TIP3     6854     TIP3     OH2      OT      -0.834000       15.9994           0
     29137 TIP3     6854     TIP3     H1       HT       0.417000       1.00800           0
     29138 TIP3     6854     TIP3     H2       HT       0.417000       1.00800           0
     29139 TIP3     6855     TIP3     OH2      OT      -0.834000       15.9994           0
     29140 TIP3     6855     TIP3     H1       HT       0.417000       1.00800           0
     29141 TIP3     6855     TIP3     H2       HT       0.417000       1.00800           0
     29142 TIP3     6856     TIP3     OH2      OT      -0.834000       15.9994           0
     29143 TIP3     6856     TIP3     H1       HT       0.417000       1.00800           0
     29144 TIP3     6856     TIP3     H2       HT       0.417000       1.00800           0
     29145 TIP3     6857     TIP3     OH2      OT      -0.834000       15.9994           0
     29146 TIP3     6857     TIP3     H1       HT       0.417000       1.00800           0
     29147 TIP3     6857     TIP3     H2       HT       0.417000       1.00800           0
     29148 TIP3     6858     TIP3     OH2      OT      -0.834000       15.9994           0
     29149 TIP3     6858     TIP3     H1       HT       0.417000       1.00800           0
     29150 TIP3     6858     TIP3     H2       HT       0.417000       1.00800           0
     29151 TIP3     6859     TIP3     OH2      OT      -0.834000       15.9994           0
     29152 TIP3     6859     TIP3     H1       HT       0.417000       1.00800           0
     29153 TIP3     6859     TIP3     H2       HT       0.417000       1.00800           0
     29154 TIP3     6860     TIP3     OH2      OT      -0.834000       15.9994           0
     29155 TIP3     6860     TIP3     H1       HT       0.417000       1.00800           0
     29156 TIP3     6860     TIP3     H2       HT       0.417000       1.00800           0
     29157 TIP3     6861     TIP3     OH2      OT      -0.834000       15.9994           0
     29158 TIP3     6861     TIP3     H1       HT       0.417000       1.00800           0
     29159 TIP3     6861     TIP3     H2       HT       0.417000       1.00800           0
     29160 TIP3     6862     TIP3     OH2      OT      -0.834000       15.9994           0
     29161 TIP3     6862     TIP3     H1       HT       0.417000       1.00800           0
     29162 TIP3     6862     TIP3     H2       HT       0.417000       1.00800           0
     29163 TIP3     6863     TIP3     OH2      OT      -0.834000       15.9994           0
     29164 TIP3     6863     TIP3     H1       HT       0.417000       1.00800           0
     29165 TIP3     6863     TIP3     H2       HT       0.417000       1.00800           0
     29166 TIP3     6864     TIP3     OH2      OT      -0.834000       15.9994           0
     29167 TIP3     6864     TIP3     H1       HT       0.417000       1.00800           0
     29168 TIP3     6864     TIP3     H2       HT       0.417000       1.00800           0
     29169 TIP3     6865     TIP3     OH2      OT      -0.834000       15.9994           0
     29170 TIP3     6865     TIP3     H1       HT       0.417000       1.00800           0
     29171 TIP3     6865     TIP3     H2       HT       0.417000       1.00800           0
     29172 TIP3     6866     TIP3     OH2      OT      -0.834000       15.9994           0
     29173 TIP3     6866     TIP3     H1       HT       0.417000       1.00800           0
     29174 TIP3     6866     TIP3     H2       HT       0.417000       1.00800           0
     29175 TIP3     6867     TIP3     OH2      OT      -0.834000       15.9994           0
     29176 TIP3     6867     TIP3     H1       HT       0.417000       1.00800           0
     29177 TIP3     6867     TIP3     H2       HT       0.417000       1.00800           0
     29178 TIP3     6868     TIP3     OH2      OT      -0.834000       15.9994           0
     29179 TIP3     6868     TIP3     H1       HT       0.417000       1.00800           0
     29180 TIP3     6868     TIP3     H2       HT       0.417000       1.00800           0
     29181 TIP3     6869     TIP3     OH2      OT      -0.834000       15.9994           0
     29182 TIP3     6869     TIP3     H1       HT       0.417000       1.00800           0
     29183 TIP3     6869     TIP3     H2       HT       0.417000       1.00800           0
     29184 TIP3     6870     TIP3     OH2      OT      -0.834000       15.9994           0
     29185 TIP3     6870     TIP3     H1       HT       0.417000       1.00800           0
     29186 TIP3     6870     TIP3     H2       HT       0.417000       1.00800           0
     29187 TIP3     6871     TIP3     OH2      OT      -0.834000       15.9994           0
     29188 TIP3     6871     TIP3     H1       HT       0.417000       1.00800           0
     29189 TIP3     6871     TIP3     H2       HT       0.417000       1.00800           0
     29190 TIP3     6872     TIP3     OH2      OT      -0.834000       15.9994           0
     29191 TIP3     6872     TIP3     H1       HT       0.417000       1.00800           0
     29192 TIP3     6872     TIP3     H2       HT       0.417000       1.00800           0
     29193 TIP3     6873     TIP3     OH2      OT      -0.834000       15.9994           0
     29194 TIP3     6873     TIP3     H1       HT       0.417000       1.00800           0
     29195 TIP3     6873     TIP3     H2       HT       0.417000       1.00800           0
     29196 TIP3     6874     TIP3     OH2      OT      -0.834000       15.9994           0
     29197 TIP3     6874     TIP3     H1       HT       0.417000       1.00800           0
     29198 TIP3     6874     TIP3     H2       HT       0.417000       1.00800           0
     29199 TIP3     6875     TIP3     OH2      OT      -0.834000       15.9994           0
     29200 TIP3     6875     TIP3     H1       HT       0.417000       1.00800           0
     29201 TIP3     6875     TIP3     H2       HT       0.417000       1.00800           0
     29202 TIP3     6876     TIP3     OH2      OT      -0.834000       15.9994           0
     29203 TIP3     6876     TIP3     H1       HT       0.417000       1.00800           0
     29204 TIP3     6876     TIP3     H2       HT       0.417000       1.00800           0
     29205 TIP3     6877     TIP3     OH2      OT      -0.834000       15.9994           0
     29206 TIP3     6877     TIP3     H1       HT       0.417000       1.00800           0
     29207 TIP3     6877     TIP3     H2       HT       0.417000       1.00800           0
     29208 TIP3     6878     TIP3     OH2      OT      -0.834000       15.9994           0
     29209 TIP3     6878     TIP3     H1       HT       0.417000       1.00800           0
     29210 TIP3     6878     TIP3     H2       HT       0.417000       1.00800           0
     29211 TIP3     6879     TIP3     OH2      OT      -0.834000       15.9994           0
     29212 TIP3     6879     TIP3     H1       HT       0.417000       1.00800           0
     29213 TIP3     6879     TIP3     H2       HT       0.417000       1.00800           0
     29214 TIP3     6880     TIP3     OH2      OT      -0.834000       15.9994           0
     29215 TIP3     6880     TIP3     H1       HT       0.417000       1.00800           0
     29216 TIP3     6880     TIP3     H2       HT       0.417000       1.00800           0
     29217 TIP3     6881     TIP3     OH2      OT      -0.834000       15.9994           0
     29218 TIP3     6881     TIP3     H1       HT       0.417000       1.00800           0
     29219 TIP3     6881     TIP3     H2       HT       0.417000       1.00800           0
     29220 TIP3     6882     TIP3     OH2      OT      -0.834000       15.9994           0
     29221 TIP3     6882     TIP3     H1       HT       0.417000       1.00800           0
     29222 TIP3     6882     TIP3     H2       HT       0.417000       1.00800           0
     29223 TIP3     6883     TIP3     OH2      OT      -0.834000       15.9994           0
     29224 TIP3     6883     TIP3     H1       HT       0.417000       1.00800           0
     29225 TIP3     6883     TIP3     H2       HT       0.417000       1.00800           0
     29226 TIP3     6884     TIP3     OH2      OT      -0.834000       15.9994           0
     29227 TIP3     6884     TIP3     H1       HT       0.417000       1.00800           0
     29228 TIP3     6884     TIP3     H2       HT       0.417000       1.00800           0
     29229 TIP3     6885     TIP3     OH2      OT      -0.834000       15.9994           0
     29230 TIP3     6885     TIP3     H1       HT       0.417000       1.00800           0
     29231 TIP3     6885     TIP3     H2       HT       0.417000       1.00800           0
     29232 TIP3     6886     TIP3     OH2      OT      -0.834000       15.9994           0
     29233 TIP3     6886     TIP3     H1       HT       0.417000       1.00800           0
     29234 TIP3     6886     TIP3     H2       HT       0.417000       1.00800           0
     29235 TIP3     6887     TIP3     OH2      OT      -0.834000       15.9994           0
     29236 TIP3     6887     TIP3     H1       HT       0.417000       1.00800           0
     29237 TIP3     6887     TIP3     H2       HT       0.417000       1.00800           0
     29238 TIP3     6888     TIP3     OH2      OT      -0.834000       15.9994           0
     29239 TIP3     6888     TIP3     H1       HT       0.417000       1.00800           0
     29240 TIP3     6888     TIP3     H2       HT       0.417000       1.00800           0
     29241 TIP3     6889     TIP3     OH2      OT      -0.834000       15.9994           0
     29242 TIP3     6889     TIP3     H1       HT       0.417000       1.00800           0
     29243 TIP3     6889     TIP3     H2       HT       0.417000       1.00800           0
     29244 TIP3     6890     TIP3     OH2      OT      -0.834000       15.9994           0
     29245 TIP3     6890     TIP3     H1       HT       0.417000       1.00800           0
     29246 TIP3     6890     TIP3     H2       HT       0.417000       1.00800           0
     29247 TIP3     6891     TIP3     OH2      OT      -0.834000       15.9994           0
     29248 TIP3     6891     TIP3     H1       HT       0.417000       1.00800           0
     29249 TIP3     6891     TIP3     H2       HT       0.417000       1.00800           0
     29250 TIP3     6892     TIP3     OH2      OT      -0.834000       15.9994           0
     29251 TIP3     6892     TIP3     H1       HT       0.417000       1.00800           0
     29252 TIP3     6892     TIP3     H2       HT       0.417000       1.00800           0
     29253 TIP3     6893     TIP3     OH2      OT      -0.834000       15.9994           0
     29254 TIP3     6893     TIP3     H1       HT       0.417000       1.00800           0
     29255 TIP3     6893     TIP3     H2       HT       0.417000       1.00800           0
     29256 TIP3     6894     TIP3     OH2      OT      -0.834000       15.9994           0
     29257 TIP3     6894     TIP3     H1       HT       0.417000       1.00800           0
     29258 TIP3     6894     TIP3     H2       HT       0.417000       1.00800           0
     29259 TIP3     6895     TIP3     OH2      OT      -0.834000       15.9994           0
     29260 TIP3     6895     TIP3     H1       HT       0.417000       1.00800           0
     29261 TIP3     6895     TIP3     H2       HT       0.417000       1.00800           0
     29262 TIP3     6896     TIP3     OH2      OT      -0.834000       15.9994           0
     29263 TIP3     6896     TIP3     H1       HT       0.417000       1.00800           0
     29264 TIP3     6896     TIP3     H2       HT       0.417000       1.00800           0
     29265 TIP3     6897     TIP3     OH2      OT      -0.834000       15.9994           0
     29266 TIP3     6897     TIP3     H1       HT       0.417000       1.00800           0
     29267 TIP3     6897     TIP3     H2       HT       0.417000       1.00800           0
     29268 TIP3     6898     TIP3     OH2      OT      -0.834000       15.9994           0
     29269 TIP3     6898     TIP3     H1       HT       0.417000       1.00800           0
     29270 TIP3     6898     TIP3     H2       HT       0.417000       1.00800           0
     29271 TIP3     6899     TIP3     OH2      OT      -0.834000       15.9994           0
     29272 TIP3     6899     TIP3     H1       HT       0.417000       1.00800           0
     29273 TIP3     6899     TIP3     H2       HT       0.417000       1.00800           0
     29274 TIP3     6900     TIP3     OH2      OT      -0.834000       15.9994           0
     29275 TIP3     6900     TIP3     H1       HT       0.417000       1.00800           0
     29276 TIP3     6900     TIP3     H2       HT       0.417000       1.00800           0
     29277 TIP3     6901     TIP3     OH2      OT      -0.834000       15.9994           0
     29278 TIP3     6901     TIP3     H1       HT       0.417000       1.00800           0
     29279 TIP3     6901     TIP3     H2       HT       0.417000       1.00800           0
     29280 TIP3     6902     TIP3     OH2      OT      -0.834000       15.9994           0
     29281 TIP3     6902     TIP3     H1       HT       0.417000       1.00800           0
     29282 TIP3     6902     TIP3     H2       HT       0.417000       1.00800           0
     29283 TIP3     6903     TIP3     OH2      OT      -0.834000       15.9994           0
     29284 TIP3     6903     TIP3     H1       HT       0.417000       1.00800           0
     29285 TIP3     6903     TIP3     H2       HT       0.417000       1.00800           0
     29286 TIP3     6904     TIP3     OH2      OT      -0.834000       15.9994           0
     29287 TIP3     6904     TIP3     H1       HT       0.417000       1.00800           0
     29288 TIP3     6904     TIP3     H2       HT       0.417000       1.00800           0
     29289 TIP3     6905     TIP3     OH2      OT      -0.834000       15.9994           0
     29290 TIP3     6905     TIP3     H1       HT       0.417000       1.00800           0
     29291 TIP3     6905     TIP3     H2       HT       0.417000       1.00800           0
     29292 TIP3     6906     TIP3     OH2      OT      -0.834000       15.9994           0
     29293 TIP3     6906     TIP3     H1       HT       0.417000       1.00800           0
     29294 TIP3     6906     TIP3     H2       HT       0.417000       1.00800           0
     29295 TIP3     6907     TIP3     OH2      OT      -0.834000       15.9994           0
     29296 TIP3     6907     TIP3     H1       HT       0.417000       1.00800           0
     29297 TIP3     6907     TIP3     H2       HT       0.417000       1.00800           0
     29298 TIP3     6908     TIP3     OH2      OT      -0.834000       15.9994           0
     29299 TIP3     6908     TIP3     H1       HT       0.417000       1.00800           0
     29300 TIP3     6908     TIP3     H2       HT       0.417000       1.00800           0
     29301 TIP3     6909     TIP3     OH2      OT      -0.834000       15.9994           0
     29302 TIP3     6909     TIP3     H1       HT       0.417000       1.00800           0
     29303 TIP3     6909     TIP3     H2       HT       0.417000       1.00800           0
     29304 TIP3     6910     TIP3     OH2      OT      -0.834000       15.9994           0
     29305 TIP3     6910     TIP3     H1       HT       0.417000       1.00800           0
     29306 TIP3     6910     TIP3     H2       HT       0.417000       1.00800           0
     29307 TIP3     6911     TIP3     OH2      OT      -0.834000       15.9994           0
     29308 TIP3     6911     TIP3     H1       HT       0.417000       1.00800           0
     29309 TIP3     6911     TIP3     H2       HT       0.417000       1.00800           0
     29310 TIP3     6912     TIP3     OH2      OT      -0.834000       15.9994           0
     29311 TIP3     6912     TIP3     H1       HT       0.417000       1.00800           0
     29312 TIP3     6912     TIP3     H2       HT       0.417000       1.00800           0
     29313 TIP3     6913     TIP3     OH2      OT      -0.834000       15.9994           0
     29314 TIP3     6913     TIP3     H1       HT       0.417000       1.00800           0
     29315 TIP3     6913     TIP3     H2       HT       0.417000       1.00800           0
     29316 TIP3     6914     TIP3     OH2      OT      -0.834000       15.9994           0
     29317 TIP3     6914     TIP3     H1       HT       0.417000       1.00800           0
     29318 TIP3     6914     TIP3     H2       HT       0.417000       1.00800           0
     29319 TIP3     6915     TIP3     OH2      OT      -0.834000       15.9994           0
     29320 TIP3     6915     TIP3     H1       HT       0.417000       1.00800           0
     29321 TIP3     6915     TIP3     H2       HT       0.417000       1.00800           0
     29322 TIP3     6916     TIP3     OH2      OT      -0.834000       15.9994           0
     29323 TIP3     6916     TIP3     H1       HT       0.417000       1.00800           0
     29324 TIP3     6916     TIP3     H2       HT       0.417000       1.00800           0
     29325 TIP3     6917     TIP3     OH2      OT      -0.834000       15.9994           0
     29326 TIP3     6917     TIP3     H1       HT       0.417000       1.00800           0
     29327 TIP3     6917     TIP3     H2       HT       0.417000       1.00800           0
     29328 TIP3     6918     TIP3     OH2      OT      -0.834000       15.9994           0
     29329 TIP3     6918     TIP3     H1       HT       0.417000       1.00800           0
     29330 TIP3     6918     TIP3     H2       HT       0.417000       1.00800           0
     29331 TIP3     6919     TIP3     OH2      OT      -0.834000       15.9994           0
     29332 TIP3     6919     TIP3     H1       HT       0.417000       1.00800           0
     29333 TIP3     6919     TIP3     H2       HT       0.417000       1.00800           0
     29334 TIP3     6920     TIP3     OH2      OT      -0.834000       15.9994           0
     29335 TIP3     6920     TIP3     H1       HT       0.417000       1.00800           0
     29336 TIP3     6920     TIP3     H2       HT       0.417000       1.00800           0
     29337 TIP3     6921     TIP3     OH2      OT      -0.834000       15.9994           0
     29338 TIP3     6921     TIP3     H1       HT       0.417000       1.00800           0
     29339 TIP3     6921     TIP3     H2       HT       0.417000       1.00800           0
     29340 TIP3     6922     TIP3     OH2      OT      -0.834000       15.9994           0
     29341 TIP3     6922     TIP3     H1       HT       0.417000       1.00800           0
     29342 TIP3     6922     TIP3     H2       HT       0.417000       1.00800           0
     29343 TIP3     6923     TIP3     OH2      OT      -0.834000       15.9994           0
     29344 TIP3     6923     TIP3     H1       HT       0.417000       1.00800           0
     29345 TIP3     6923     TIP3     H2       HT       0.417000       1.00800           0
     29346 TIP3     6924     TIP3     OH2      OT      -0.834000       15.9994           0
     29347 TIP3     6924     TIP3     H1       HT       0.417000       1.00800           0
     29348 TIP3     6924     TIP3     H2       HT       0.417000       1.00800           0
     29349 TIP3     6925     TIP3     OH2      OT      -0.834000       15.9994           0
     29350 TIP3     6925     TIP3     H1       HT       0.417000       1.00800           0
     29351 TIP3     6925     TIP3     H2       HT       0.417000       1.00800           0
     29352 TIP3     6926     TIP3     OH2      OT      -0.834000       15.9994           0
     29353 TIP3     6926     TIP3     H1       HT       0.417000       1.00800           0
     29354 TIP3     6926     TIP3     H2       HT       0.417000       1.00800           0
     29355 TIP3     6927     TIP3     OH2      OT      -0.834000       15.9994           0
     29356 TIP3     6927     TIP3     H1       HT       0.417000       1.00800           0
     29357 TIP3     6927     TIP3     H2       HT       0.417000       1.00800           0
     29358 TIP3     6928     TIP3     OH2      OT      -0.834000       15.9994           0
     29359 TIP3     6928     TIP3     H1       HT       0.417000       1.00800           0
     29360 TIP3     6928     TIP3     H2       HT       0.417000       1.00800           0
     29361 TIP3     6929     TIP3     OH2      OT      -0.834000       15.9994           0
     29362 TIP3     6929     TIP3     H1       HT       0.417000       1.00800           0
     29363 TIP3     6929     TIP3     H2       HT       0.417000       1.00800           0
     29364 TIP3     6930     TIP3     OH2      OT      -0.834000       15.9994           0
     29365 TIP3     6930     TIP3     H1       HT       0.417000       1.00800           0
     29366 TIP3     6930     TIP3     H2       HT       0.417000       1.00800           0
     29367 TIP3     6931     TIP3     OH2      OT      -0.834000       15.9994           0
     29368 TIP3     6931     TIP3     H1       HT       0.417000       1.00800           0
     29369 TIP3     6931     TIP3     H2       HT       0.417000       1.00800           0
     29370 TIP3     6932     TIP3     OH2      OT      -0.834000       15.9994           0
     29371 TIP3     6932     TIP3     H1       HT       0.417000       1.00800           0
     29372 TIP3     6932     TIP3     H2       HT       0.417000       1.00800           0
     29373 TIP3     6933     TIP3     OH2      OT      -0.834000       15.9994           0
     29374 TIP3     6933     TIP3     H1       HT       0.417000       1.00800           0
     29375 TIP3     6933     TIP3     H2       HT       0.417000       1.00800           0
     29376 TIP3     6934     TIP3     OH2      OT      -0.834000       15.9994           0
     29377 TIP3     6934     TIP3     H1       HT       0.417000       1.00800           0
     29378 TIP3     6934     TIP3     H2       HT       0.417000       1.00800           0
     29379 TIP3     6935     TIP3     OH2      OT      -0.834000       15.9994           0
     29380 TIP3     6935     TIP3     H1       HT       0.417000       1.00800           0
     29381 TIP3     6935     TIP3     H2       HT       0.417000       1.00800           0
     29382 TIP3     6936     TIP3     OH2      OT      -0.834000       15.9994           0
     29383 TIP3     6936     TIP3     H1       HT       0.417000       1.00800           0
     29384 TIP3     6936     TIP3     H2       HT       0.417000       1.00800           0
     29385 TIP3     6937     TIP3     OH2      OT      -0.834000       15.9994           0
     29386 TIP3     6937     TIP3     H1       HT       0.417000       1.00800           0
     29387 TIP3     6937     TIP3     H2       HT       0.417000       1.00800           0
     29388 TIP3     6938     TIP3     OH2      OT      -0.834000       15.9994           0
     29389 TIP3     6938     TIP3     H1       HT       0.417000       1.00800           0
     29390 TIP3     6938     TIP3     H2       HT       0.417000       1.00800           0
     29391 TIP3     6939     TIP3     OH2      OT      -0.834000       15.9994           0
     29392 TIP3     6939     TIP3     H1       HT       0.417000       1.00800           0
     29393 TIP3     6939     TIP3     H2       HT       0.417000       1.00800           0
     29394 TIP3     6940     TIP3     OH2      OT      -0.834000       15.9994           0
     29395 TIP3     6940     TIP3     H1       HT       0.417000       1.00800           0
     29396 TIP3     6940     TIP3     H2       HT       0.417000       1.00800           0
     29397 TIP3     6941     TIP3     OH2      OT      -0.834000       15.9994           0
     29398 TIP3     6941     TIP3     H1       HT       0.417000       1.00800           0
     29399 TIP3     6941     TIP3     H2       HT       0.417000       1.00800           0
     29400 TIP3     6942     TIP3     OH2      OT      -0.834000       15.9994           0
     29401 TIP3     6942     TIP3     H1       HT       0.417000       1.00800           0
     29402 TIP3     6942     TIP3     H2       HT       0.417000       1.00800           0
     29403 TIP3     6943     TIP3     OH2      OT      -0.834000       15.9994           0
     29404 TIP3     6943     TIP3     H1       HT       0.417000       1.00800           0
     29405 TIP3     6943     TIP3     H2       HT       0.417000       1.00800           0
     29406 TIP3     6944     TIP3     OH2      OT      -0.834000       15.9994           0
     29407 TIP3     6944     TIP3     H1       HT       0.417000       1.00800           0
     29408 TIP3     6944     TIP3     H2       HT       0.417000       1.00800           0
     29409 TIP3     6945     TIP3     OH2      OT      -0.834000       15.9994           0
     29410 TIP3     6945     TIP3     H1       HT       0.417000       1.00800           0
     29411 TIP3     6945     TIP3     H2       HT       0.417000       1.00800           0
     29412 TIP3     6946     TIP3     OH2      OT      -0.834000       15.9994           0
     29413 TIP3     6946     TIP3     H1       HT       0.417000       1.00800           0
     29414 TIP3     6946     TIP3     H2       HT       0.417000       1.00800           0
     29415 TIP3     6947     TIP3     OH2      OT      -0.834000       15.9994           0
     29416 TIP3     6947     TIP3     H1       HT       0.417000       1.00800           0
     29417 TIP3     6947     TIP3     H2       HT       0.417000       1.00800           0
     29418 TIP3     6948     TIP3     OH2      OT      -0.834000       15.9994           0
     29419 TIP3     6948     TIP3     H1       HT       0.417000       1.00800           0
     29420 TIP3     6948     TIP3     H2       HT       0.417000       1.00800           0
     29421 TIP3     6949     TIP3     OH2      OT      -0.834000       15.9994           0
     29422 TIP3     6949     TIP3     H1       HT       0.417000       1.00800           0
     29423 TIP3     6949     TIP3     H2       HT       0.417000       1.00800           0
     29424 TIP3     6950     TIP3     OH2      OT      -0.834000       15.9994           0
     29425 TIP3     6950     TIP3     H1       HT       0.417000       1.00800           0
     29426 TIP3     6950     TIP3     H2       HT       0.417000       1.00800           0
     29427 TIP3     6951     TIP3     OH2      OT      -0.834000       15.9994           0
     29428 TIP3     6951     TIP3     H1       HT       0.417000       1.00800           0
     29429 TIP3     6951     TIP3     H2       HT       0.417000       1.00800           0
     29430 TIP3     6952     TIP3     OH2      OT      -0.834000       15.9994           0
     29431 TIP3     6952     TIP3     H1       HT       0.417000       1.00800           0
     29432 TIP3     6952     TIP3     H2       HT       0.417000       1.00800           0
     29433 TIP3     6953     TIP3     OH2      OT      -0.834000       15.9994           0
     29434 TIP3     6953     TIP3     H1       HT       0.417000       1.00800           0
     29435 TIP3     6953     TIP3     H2       HT       0.417000       1.00800           0
     29436 TIP3     6954     TIP3     OH2      OT      -0.834000       15.9994           0
     29437 TIP3     6954     TIP3     H1       HT       0.417000       1.00800           0
     29438 TIP3     6954     TIP3     H2       HT       0.417000       1.00800           0
     29439 TIP3     6955     TIP3     OH2      OT      -0.834000       15.9994           0
     29440 TIP3     6955     TIP3     H1       HT       0.417000       1.00800           0
     29441 TIP3     6955     TIP3     H2       HT       0.417000       1.00800           0
     29442 TIP3     6956     TIP3     OH2      OT      -0.834000       15.9994           0
     29443 TIP3     6956     TIP3     H1       HT       0.417000       1.00800           0
     29444 TIP3     6956     TIP3     H2       HT       0.417000       1.00800           0
     29445 TIP3     6957     TIP3     OH2      OT      -0.834000       15.9994           0
     29446 TIP3     6957     TIP3     H1       HT       0.417000       1.00800           0
     29447 TIP3     6957     TIP3     H2       HT       0.417000       1.00800           0
     29448 TIP3     6958     TIP3     OH2      OT      -0.834000       15.9994           0
     29449 TIP3     6958     TIP3     H1       HT       0.417000       1.00800           0
     29450 TIP3     6958     TIP3     H2       HT       0.417000       1.00800           0
     29451 TIP3     6959     TIP3     OH2      OT      -0.834000       15.9994           0
     29452 TIP3     6959     TIP3     H1       HT       0.417000       1.00800           0
     29453 TIP3     6959     TIP3     H2       HT       0.417000       1.00800           0
     29454 TIP3     6960     TIP3     OH2      OT      -0.834000       15.9994           0
     29455 TIP3     6960     TIP3     H1       HT       0.417000       1.00800           0
     29456 TIP3     6960     TIP3     H2       HT       0.417000       1.00800           0
     29457 TIP3     6961     TIP3     OH2      OT      -0.834000       15.9994           0
     29458 TIP3     6961     TIP3     H1       HT       0.417000       1.00800           0
     29459 TIP3     6961     TIP3     H2       HT       0.417000       1.00800           0
     29460 TIP3     6962     TIP3     OH2      OT      -0.834000       15.9994           0
     29461 TIP3     6962     TIP3     H1       HT       0.417000       1.00800           0
     29462 TIP3     6962     TIP3     H2       HT       0.417000       1.00800           0
     29463 TIP3     6963     TIP3     OH2      OT      -0.834000       15.9994           0
     29464 TIP3     6963     TIP3     H1       HT       0.417000       1.00800           0
     29465 TIP3     6963     TIP3     H2       HT       0.417000       1.00800           0
     29466 TIP3     6964     TIP3     OH2      OT      -0.834000       15.9994           0
     29467 TIP3     6964     TIP3     H1       HT       0.417000       1.00800           0
     29468 TIP3     6964     TIP3     H2       HT       0.417000       1.00800           0
     29469 TIP3     6965     TIP3     OH2      OT      -0.834000       15.9994           0
     29470 TIP3     6965     TIP3     H1       HT       0.417000       1.00800           0
     29471 TIP3     6965     TIP3     H2       HT       0.417000       1.00800           0
     29472 TIP3     6966     TIP3     OH2      OT      -0.834000       15.9994           0
     29473 TIP3     6966     TIP3     H1       HT       0.417000       1.00800           0
     29474 TIP3     6966     TIP3     H2       HT       0.417000       1.00800           0
     29475 TIP3     6967     TIP3     OH2      OT      -0.834000       15.9994           0
     29476 TIP3     6967     TIP3     H1       HT       0.417000       1.00800           0
     29477 TIP3     6967     TIP3     H2       HT       0.417000       1.00800           0
     29478 TIP3     6968     TIP3     OH2      OT      -0.834000       15.9994           0
     29479 TIP3     6968     TIP3     H1       HT       0.417000       1.00800           0
     29480 TIP3     6968     TIP3     H2       HT       0.417000       1.00800           0
     29481 TIP3     6969     TIP3     OH2      OT      -0.834000       15.9994           0
     29482 TIP3     6969     TIP3     H1       HT       0.417000       1.00800           0
     29483 TIP3     6969     TIP3     H2       HT       0.417000       1.00800           0
     29484 TIP3     6970     TIP3     OH2      OT      -0.834000       15.9994           0
     29485 TIP3     6970     TIP3     H1       HT       0.417000       1.00800           0
     29486 TIP3     6970     TIP3     H2       HT       0.417000       1.00800           0
     29487 TIP3     6971     TIP3     OH2      OT      -0.834000       15.9994           0
     29488 TIP3     6971     TIP3     H1       HT       0.417000       1.00800           0
     29489 TIP3     6971     TIP3     H2       HT       0.417000       1.00800           0
     29490 TIP3     6972     TIP3     OH2      OT      -0.834000       15.9994           0
     29491 TIP3     6972     TIP3     H1       HT       0.417000       1.00800           0
     29492 TIP3     6972     TIP3     H2       HT       0.417000       1.00800           0
     29493 TIP3     6973     TIP3     OH2      OT      -0.834000       15.9994           0
     29494 TIP3     6973     TIP3     H1       HT       0.417000       1.00800           0
     29495 TIP3     6973     TIP3     H2       HT       0.417000       1.00800           0
     29496 TIP3     6974     TIP3     OH2      OT      -0.834000       15.9994           0
     29497 TIP3     6974     TIP3     H1       HT       0.417000       1.00800           0
     29498 TIP3     6974     TIP3     H2       HT       0.417000       1.00800           0
     29499 TIP3     6975     TIP3     OH2      OT      -0.834000       15.9994           0
     29500 TIP3     6975     TIP3     H1       HT       0.417000       1.00800           0
     29501 TIP3     6975     TIP3     H2       HT       0.417000       1.00800           0
     29502 TIP3     6976     TIP3     OH2      OT      -0.834000       15.9994           0
     29503 TIP3     6976     TIP3     H1       HT       0.417000       1.00800           0
     29504 TIP3     6976     TIP3     H2       HT       0.417000       1.00800           0
     29505 TIP3     6977     TIP3     OH2      OT      -0.834000       15.9994           0
     29506 TIP3     6977     TIP3     H1       HT       0.417000       1.00800           0
     29507 TIP3     6977     TIP3     H2       HT       0.417000       1.00800           0
     29508 TIP3     6978     TIP3     OH2      OT      -0.834000       15.9994           0
     29509 TIP3     6978     TIP3     H1       HT       0.417000       1.00800           0
     29510 TIP3     6978     TIP3     H2       HT       0.417000       1.00800           0
     29511 TIP3     6979     TIP3     OH2      OT      -0.834000       15.9994           0
     29512 TIP3     6979     TIP3     H1       HT       0.417000       1.00800           0
     29513 TIP3     6979     TIP3     H2       HT       0.417000       1.00800           0
     29514 TIP3     6980     TIP3     OH2      OT      -0.834000       15.9994           0
     29515 TIP3     6980     TIP3     H1       HT       0.417000       1.00800           0
     29516 TIP3     6980     TIP3     H2       HT       0.417000       1.00800           0
     29517 TIP3     6981     TIP3     OH2      OT      -0.834000       15.9994           0
     29518 TIP3     6981     TIP3     H1       HT       0.417000       1.00800           0
     29519 TIP3     6981     TIP3     H2       HT       0.417000       1.00800           0
     29520 TIP3     6982     TIP3     OH2      OT      -0.834000       15.9994           0
     29521 TIP3     6982     TIP3     H1       HT       0.417000       1.00800           0
     29522 TIP3     6982     TIP3     H2       HT       0.417000       1.00800           0
     29523 TIP3     6983     TIP3     OH2      OT      -0.834000       15.9994           0
     29524 TIP3     6983     TIP3     H1       HT       0.417000       1.00800           0
     29525 TIP3     6983     TIP3     H2       HT       0.417000       1.00800           0
     29526 TIP3     6984     TIP3     OH2      OT      -0.834000       15.9994           0
     29527 TIP3     6984     TIP3     H1       HT       0.417000       1.00800           0
     29528 TIP3     6984     TIP3     H2       HT       0.417000       1.00800           0
     29529 TIP3     6985     TIP3     OH2      OT      -0.834000       15.9994           0
     29530 TIP3     6985     TIP3     H1       HT       0.417000       1.00800           0
     29531 TIP3     6985     TIP3     H2       HT       0.417000       1.00800           0
     29532 TIP3     6986     TIP3     OH2      OT      -0.834000       15.9994           0
     29533 TIP3     6986     TIP3     H1       HT       0.417000       1.00800           0
     29534 TIP3     6986     TIP3     H2       HT       0.417000       1.00800           0
     29535 TIP3     6987     TIP3     OH2      OT      -0.834000       15.9994           0
     29536 TIP3     6987     TIP3     H1       HT       0.417000       1.00800           0
     29537 TIP3     6987     TIP3     H2       HT       0.417000       1.00800           0
     29538 TIP3     6988     TIP3     OH2      OT      -0.834000       15.9994           0
     29539 TIP3     6988     TIP3     H1       HT       0.417000       1.00800           0
     29540 TIP3     6988     TIP3     H2       HT       0.417000       1.00800           0
     29541 TIP3     6989     TIP3     OH2      OT      -0.834000       15.9994           0
     29542 TIP3     6989     TIP3     H1       HT       0.417000       1.00800           0
     29543 TIP3     6989     TIP3     H2       HT       0.417000       1.00800           0
     29544 TIP3     6990     TIP3     OH2      OT      -0.834000       15.9994           0
     29545 TIP3     6990     TIP3     H1       HT       0.417000       1.00800           0
     29546 TIP3     6990     TIP3     H2       HT       0.417000       1.00800           0
     29547 TIP3     6991     TIP3     OH2      OT      -0.834000       15.9994           0
     29548 TIP3     6991     TIP3     H1       HT       0.417000       1.00800           0
     29549 TIP3     6991     TIP3     H2       HT       0.417000       1.00800           0
     29550 TIP3     6992     TIP3     OH2      OT      -0.834000       15.9994           0
     29551 TIP3     6992     TIP3     H1       HT       0.417000       1.00800           0
     29552 TIP3     6992     TIP3     H2       HT       0.417000       1.00800           0
     29553 TIP3     6993     TIP3     OH2      OT      -0.834000       15.9994           0
     29554 TIP3     6993     TIP3     H1       HT       0.417000       1.00800           0
     29555 TIP3     6993     TIP3     H2       HT       0.417000       1.00800           0
     29556 TIP3     6994     TIP3     OH2      OT      -0.834000       15.9994           0
     29557 TIP3     6994     TIP3     H1       HT       0.417000       1.00800           0
     29558 TIP3     6994     TIP3     H2       HT       0.417000       1.00800           0
     29559 TIP3     6995     TIP3     OH2      OT      -0.834000       15.9994           0
     29560 TIP3     6995     TIP3     H1       HT       0.417000       1.00800           0
     29561 TIP3     6995     TIP3     H2       HT       0.417000       1.00800           0
     29562 TIP3     6996     TIP3     OH2      OT      -0.834000       15.9994           0
     29563 TIP3     6996     TIP3     H1       HT       0.417000       1.00800           0
     29564 TIP3     6996     TIP3     H2       HT       0.417000       1.00800           0
     29565 TIP3     6997     TIP3     OH2      OT      -0.834000       15.9994           0
     29566 TIP3     6997     TIP3     H1       HT       0.417000       1.00800           0
     29567 TIP3     6997     TIP3     H2       HT       0.417000       1.00800           0
     29568 TIP3     6998     TIP3     OH2      OT      -0.834000       15.9994           0
     29569 TIP3     6998     TIP3     H1       HT       0.417000       1.00800           0
     29570 TIP3     6998     TIP3     H2       HT       0.417000       1.00800           0
     29571 TIP3     6999     TIP3     OH2      OT      -0.834000       15.9994           0
     29572 TIP3     6999     TIP3     H1       HT       0.417000       1.00800           0
     29573 TIP3     6999     TIP3     H2       HT       0.417000       1.00800           0
     29574 TIP3     7000     TIP3     OH2      OT      -0.834000       15.9994           0
     29575 TIP3     7000     TIP3     H1       HT       0.417000       1.00800           0
     29576 TIP3     7000     TIP3     H2       HT       0.417000       1.00800           0
     29577 TIP3     7001     TIP3     OH2      OT      -0.834000       15.9994           0
     29578 TIP3     7001     TIP3     H1       HT       0.417000       1.00800           0
     29579 TIP3     7001     TIP3     H2       HT       0.417000       1.00800           0
     29580 TIP3     7002     TIP3     OH2      OT      -0.834000       15.9994           0
     29581 TIP3     7002     TIP3     H1       HT       0.417000       1.00800           0
     29582 TIP3     7002     TIP3     H2       HT       0.417000       1.00800           0
     29583 TIP3     7003     TIP3     OH2      OT      -0.834000       15.9994           0
     29584 TIP3     7003     TIP3     H1       HT       0.417000       1.00800           0
     29585 TIP3     7003     TIP3     H2       HT       0.417000       1.00800           0
     29586 TIP3     7004     TIP3     OH2      OT      -0.834000       15.9994           0
     29587 TIP3     7004     TIP3     H1       HT       0.417000       1.00800           0
     29588 TIP3     7004     TIP3     H2       HT       0.417000       1.00800           0
     29589 TIP3     7005     TIP3     OH2      OT      -0.834000       15.9994           0
     29590 TIP3     7005     TIP3     H1       HT       0.417000       1.00800           0
     29591 TIP3     7005     TIP3     H2       HT       0.417000       1.00800           0
     29592 TIP3     7006     TIP3     OH2      OT      -0.834000       15.9994           0
     29593 TIP3     7006     TIP3     H1       HT       0.417000       1.00800           0
     29594 TIP3     7006     TIP3     H2       HT       0.417000       1.00800           0
     29595 TIP3     7007     TIP3     OH2      OT      -0.834000       15.9994           0
     29596 TIP3     7007     TIP3     H1       HT       0.417000       1.00800           0
     29597 TIP3     7007     TIP3     H2       HT       0.417000       1.00800           0
     29598 TIP3     7008     TIP3     OH2      OT      -0.834000       15.9994           0
     29599 TIP3     7008     TIP3     H1       HT       0.417000       1.00800           0
     29600 TIP3     7008     TIP3     H2       HT       0.417000       1.00800           0
     29601 TIP3     7009     TIP3     OH2      OT      -0.834000       15.9994           0
     29602 TIP3     7009     TIP3     H1       HT       0.417000       1.00800           0
     29603 TIP3     7009     TIP3     H2       HT       0.417000       1.00800           0
     29604 TIP3     7010     TIP3     OH2      OT      -0.834000       15.9994           0
     29605 TIP3     7010     TIP3     H1       HT       0.417000       1.00800           0
     29606 TIP3     7010     TIP3     H2       HT       0.417000       1.00800           0
     29607 TIP3     7011     TIP3     OH2      OT      -0.834000       15.9994           0
     29608 TIP3     7011     TIP3     H1       HT       0.417000       1.00800           0
     29609 TIP3     7011     TIP3     H2       HT       0.417000       1.00800           0
     29610 TIP3     7012     TIP3     OH2      OT      -0.834000       15.9994           0
     29611 TIP3     7012     TIP3     H1       HT       0.417000       1.00800           0
     29612 TIP3     7012     TIP3     H2       HT       0.417000       1.00800           0
     29613 TIP3     7013     TIP3     OH2      OT      -0.834000       15.9994           0
     29614 TIP3     7013     TIP3     H1       HT       0.417000       1.00800           0
     29615 TIP3     7013     TIP3     H2       HT       0.417000       1.00800           0
     29616 TIP3     7014     TIP3     OH2      OT      -0.834000       15.9994           0
     29617 TIP3     7014     TIP3     H1       HT       0.417000       1.00800           0
     29618 TIP3     7014     TIP3     H2       HT       0.417000       1.00800           0
     29619 TIP3     7015     TIP3     OH2      OT      -0.834000       15.9994           0
     29620 TIP3     7015     TIP3     H1       HT       0.417000       1.00800           0
     29621 TIP3     7015     TIP3     H2       HT       0.417000       1.00800           0
     29622 TIP3     7016     TIP3     OH2      OT      -0.834000       15.9994           0
     29623 TIP3     7016     TIP3     H1       HT       0.417000       1.00800           0
     29624 TIP3     7016     TIP3     H2       HT       0.417000       1.00800           0
     29625 TIP3     7017     TIP3     OH2      OT      -0.834000       15.9994           0
     29626 TIP3     7017     TIP3     H1       HT       0.417000       1.00800           0
     29627 TIP3     7017     TIP3     H2       HT       0.417000       1.00800           0
     29628 TIP3     7018     TIP3     OH2      OT      -0.834000       15.9994           0
     29629 TIP3     7018     TIP3     H1       HT       0.417000       1.00800           0
     29630 TIP3     7018     TIP3     H2       HT       0.417000       1.00800           0
     29631 TIP3     7019     TIP3     OH2      OT      -0.834000       15.9994           0
     29632 TIP3     7019     TIP3     H1       HT       0.417000       1.00800           0
     29633 TIP3     7019     TIP3     H2       HT       0.417000       1.00800           0
     29634 TIP3     7020     TIP3     OH2      OT      -0.834000       15.9994           0
     29635 TIP3     7020     TIP3     H1       HT       0.417000       1.00800           0
     29636 TIP3     7020     TIP3     H2       HT       0.417000       1.00800           0
     29637 TIP3     7021     TIP3     OH2      OT      -0.834000       15.9994           0
     29638 TIP3     7021     TIP3     H1       HT       0.417000       1.00800           0
     29639 TIP3     7021     TIP3     H2       HT       0.417000       1.00800           0
     29640 TIP3     7022     TIP3     OH2      OT      -0.834000       15.9994           0
     29641 TIP3     7022     TIP3     H1       HT       0.417000       1.00800           0
     29642 TIP3     7022     TIP3     H2       HT       0.417000       1.00800           0
     29643 TIP3     7023     TIP3     OH2      OT      -0.834000       15.9994           0
     29644 TIP3     7023     TIP3     H1       HT       0.417000       1.00800           0
     29645 TIP3     7023     TIP3     H2       HT       0.417000       1.00800           0
     29646 TIP3     7024     TIP3     OH2      OT      -0.834000       15.9994           0
     29647 TIP3     7024     TIP3     H1       HT       0.417000       1.00800           0
     29648 TIP3     7024     TIP3     H2       HT       0.417000       1.00800           0
     29649 TIP3     7025     TIP3     OH2      OT      -0.834000       15.9994           0
     29650 TIP3     7025     TIP3     H1       HT       0.417000       1.00800           0
     29651 TIP3     7025     TIP3     H2       HT       0.417000       1.00800           0
     29652 TIP3     7026     TIP3     OH2      OT      -0.834000       15.9994           0
     29653 TIP3     7026     TIP3     H1       HT       0.417000       1.00800           0
     29654 TIP3     7026     TIP3     H2       HT       0.417000       1.00800           0
     29655 TIP3     7027     TIP3     OH2      OT      -0.834000       15.9994           0
     29656 TIP3     7027     TIP3     H1       HT       0.417000       1.00800           0
     29657 TIP3     7027     TIP3     H2       HT       0.417000       1.00800           0
     29658 TIP3     7028     TIP3     OH2      OT      -0.834000       15.9994           0
     29659 TIP3     7028     TIP3     H1       HT       0.417000       1.00800           0
     29660 TIP3     7028     TIP3     H2       HT       0.417000       1.00800           0
     29661 TIP3     7029     TIP3     OH2      OT      -0.834000       15.9994           0
     29662 TIP3     7029     TIP3     H1       HT       0.417000       1.00800           0
     29663 TIP3     7029     TIP3     H2       HT       0.417000       1.00800           0
     29664 TIP3     7030     TIP3     OH2      OT      -0.834000       15.9994           0
     29665 TIP3     7030     TIP3     H1       HT       0.417000       1.00800           0
     29666 TIP3     7030     TIP3     H2       HT       0.417000       1.00800           0
     29667 TIP3     7031     TIP3     OH2      OT      -0.834000       15.9994           0
     29668 TIP3     7031     TIP3     H1       HT       0.417000       1.00800           0
     29669 TIP3     7031     TIP3     H2       HT       0.417000       1.00800           0
     29670 TIP3     7032     TIP3     OH2      OT      -0.834000       15.9994           0
     29671 TIP3     7032     TIP3     H1       HT       0.417000       1.00800           0
     29672 TIP3     7032     TIP3     H2       HT       0.417000       1.00800           0
     29673 TIP3     7033     TIP3     OH2      OT      -0.834000       15.9994           0
     29674 TIP3     7033     TIP3     H1       HT       0.417000       1.00800           0
     29675 TIP3     7033     TIP3     H2       HT       0.417000       1.00800           0
     29676 TIP3     7034     TIP3     OH2      OT      -0.834000       15.9994           0
     29677 TIP3     7034     TIP3     H1       HT       0.417000       1.00800           0
     29678 TIP3     7034     TIP3     H2       HT       0.417000       1.00800           0
     29679 TIP3     7035     TIP3     OH2      OT      -0.834000       15.9994           0
     29680 TIP3     7035     TIP3     H1       HT       0.417000       1.00800           0
     29681 TIP3     7035     TIP3     H2       HT       0.417000       1.00800           0
     29682 TIP3     7036     TIP3     OH2      OT      -0.834000       15.9994           0
     29683 TIP3     7036     TIP3     H1       HT       0.417000       1.00800           0
     29684 TIP3     7036     TIP3     H2       HT       0.417000       1.00800           0
     29685 TIP3     7037     TIP3     OH2      OT      -0.834000       15.9994           0
     29686 TIP3     7037     TIP3     H1       HT       0.417000       1.00800           0
     29687 TIP3     7037     TIP3     H2       HT       0.417000       1.00800           0
     29688 TIP3     7038     TIP3     OH2      OT      -0.834000       15.9994           0
     29689 TIP3     7038     TIP3     H1       HT       0.417000       1.00800           0
     29690 TIP3     7038     TIP3     H2       HT       0.417000       1.00800           0
     29691 TIP3     7039     TIP3     OH2      OT      -0.834000       15.9994           0
     29692 TIP3     7039     TIP3     H1       HT       0.417000       1.00800           0
     29693 TIP3     7039     TIP3     H2       HT       0.417000       1.00800           0
     29694 TIP3     7040     TIP3     OH2      OT      -0.834000       15.9994           0
     29695 TIP3     7040     TIP3     H1       HT       0.417000       1.00800           0
     29696 TIP3     7040     TIP3     H2       HT       0.417000       1.00800           0
     29697 TIP3     7041     TIP3     OH2      OT      -0.834000       15.9994           0
     29698 TIP3     7041     TIP3     H1       HT       0.417000       1.00800           0
     29699 TIP3     7041     TIP3     H2       HT       0.417000       1.00800           0
     29700 TIP3     7042     TIP3     OH2      OT      -0.834000       15.9994           0
     29701 TIP3     7042     TIP3     H1       HT       0.417000       1.00800           0
     29702 TIP3     7042     TIP3     H2       HT       0.417000       1.00800           0
     29703 TIP3     7043     TIP3     OH2      OT      -0.834000       15.9994           0
     29704 TIP3     7043     TIP3     H1       HT       0.417000       1.00800           0
     29705 TIP3     7043     TIP3     H2       HT       0.417000       1.00800           0
     29706 TIP3     7044     TIP3     OH2      OT      -0.834000       15.9994           0
     29707 TIP3     7044     TIP3     H1       HT       0.417000       1.00800           0
     29708 TIP3     7044     TIP3     H2       HT       0.417000       1.00800           0
     29709 TIP3     7045     TIP3     OH2      OT      -0.834000       15.9994           0
     29710 TIP3     7045     TIP3     H1       HT       0.417000       1.00800           0
     29711 TIP3     7045     TIP3     H2       HT       0.417000       1.00800           0
     29712 TIP3     7046     TIP3     OH2      OT      -0.834000       15.9994           0
     29713 TIP3     7046     TIP3     H1       HT       0.417000       1.00800           0
     29714 TIP3     7046     TIP3     H2       HT       0.417000       1.00800           0
     29715 TIP3     7047     TIP3     OH2      OT      -0.834000       15.9994           0
     29716 TIP3     7047     TIP3     H1       HT       0.417000       1.00800           0
     29717 TIP3     7047     TIP3     H2       HT       0.417000       1.00800           0
     29718 TIP3     7048     TIP3     OH2      OT      -0.834000       15.9994           0
     29719 TIP3     7048     TIP3     H1       HT       0.417000       1.00800           0
     29720 TIP3     7048     TIP3     H2       HT       0.417000       1.00800           0
     29721 TIP3     7049     TIP3     OH2      OT      -0.834000       15.9994           0
     29722 TIP3     7049     TIP3     H1       HT       0.417000       1.00800           0
     29723 TIP3     7049     TIP3     H2       HT       0.417000       1.00800           0
     29724 TIP3     7050     TIP3     OH2      OT      -0.834000       15.9994           0
     29725 TIP3     7050     TIP3     H1       HT       0.417000       1.00800           0
     29726 TIP3     7050     TIP3     H2       HT       0.417000       1.00800           0
     29727 TIP3     7051     TIP3     OH2      OT      -0.834000       15.9994           0
     29728 TIP3     7051     TIP3     H1       HT       0.417000       1.00800           0
     29729 TIP3     7051     TIP3     H2       HT       0.417000       1.00800           0
     29730 TIP3     7052     TIP3     OH2      OT      -0.834000       15.9994           0
     29731 TIP3     7052     TIP3     H1       HT       0.417000       1.00800           0
     29732 TIP3     7052     TIP3     H2       HT       0.417000       1.00800           0
     29733 TIP3     7053     TIP3     OH2      OT      -0.834000       15.9994           0
     29734 TIP3     7053     TIP3     H1       HT       0.417000       1.00800           0
     29735 TIP3     7053     TIP3     H2       HT       0.417000       1.00800           0
     29736 TIP3     7054     TIP3     OH2      OT      -0.834000       15.9994           0
     29737 TIP3     7054     TIP3     H1       HT       0.417000       1.00800           0
     29738 TIP3     7054     TIP3     H2       HT       0.417000       1.00800           0
     29739 TIP3     7055     TIP3     OH2      OT      -0.834000       15.9994           0
     29740 TIP3     7055     TIP3     H1       HT       0.417000       1.00800           0
     29741 TIP3     7055     TIP3     H2       HT       0.417000       1.00800           0
     29742 TIP3     7056     TIP3     OH2      OT      -0.834000       15.9994           0
     29743 TIP3     7056     TIP3     H1       HT       0.417000       1.00800           0
     29744 TIP3     7056     TIP3     H2       HT       0.417000       1.00800           0
     29745 TIP3     7057     TIP3     OH2      OT      -0.834000       15.9994           0
     29746 TIP3     7057     TIP3     H1       HT       0.417000       1.00800           0
     29747 TIP3     7057     TIP3     H2       HT       0.417000       1.00800           0
     29748 TIP3     7058     TIP3     OH2      OT      -0.834000       15.9994           0
     29749 TIP3     7058     TIP3     H1       HT       0.417000       1.00800           0
     29750 TIP3     7058     TIP3     H2       HT       0.417000       1.00800           0
     29751 TIP3     7059     TIP3     OH2      OT      -0.834000       15.9994           0
     29752 TIP3     7059     TIP3     H1       HT       0.417000       1.00800           0
     29753 TIP3     7059     TIP3     H2       HT       0.417000       1.00800           0
     29754 TIP3     7060     TIP3     OH2      OT      -0.834000       15.9994           0
     29755 TIP3     7060     TIP3     H1       HT       0.417000       1.00800           0
     29756 TIP3     7060     TIP3     H2       HT       0.417000       1.00800           0
     29757 TIP3     7061     TIP3     OH2      OT      -0.834000       15.9994           0
     29758 TIP3     7061     TIP3     H1       HT       0.417000       1.00800           0
     29759 TIP3     7061     TIP3     H2       HT       0.417000       1.00800           0
     29760 TIP3     7062     TIP3     OH2      OT      -0.834000       15.9994           0
     29761 TIP3     7062     TIP3     H1       HT       0.417000       1.00800           0
     29762 TIP3     7062     TIP3     H2       HT       0.417000       1.00800           0
     29763 TIP3     7063     TIP3     OH2      OT      -0.834000       15.9994           0
     29764 TIP3     7063     TIP3     H1       HT       0.417000       1.00800           0
     29765 TIP3     7063     TIP3     H2       HT       0.417000       1.00800           0
     29766 TIP3     7064     TIP3     OH2      OT      -0.834000       15.9994           0
     29767 TIP3     7064     TIP3     H1       HT       0.417000       1.00800           0
     29768 TIP3     7064     TIP3     H2       HT       0.417000       1.00800           0
     29769 TIP3     7065     TIP3     OH2      OT      -0.834000       15.9994           0
     29770 TIP3     7065     TIP3     H1       HT       0.417000       1.00800           0
     29771 TIP3     7065     TIP3     H2       HT       0.417000       1.00800           0
     29772 TIP3     7066     TIP3     OH2      OT      -0.834000       15.9994           0
     29773 TIP3     7066     TIP3     H1       HT       0.417000       1.00800           0
     29774 TIP3     7066     TIP3     H2       HT       0.417000       1.00800           0
     29775 TIP3     7067     TIP3     OH2      OT      -0.834000       15.9994           0
     29776 TIP3     7067     TIP3     H1       HT       0.417000       1.00800           0
     29777 TIP3     7067     TIP3     H2       HT       0.417000       1.00800           0
     29778 TIP3     7068     TIP3     OH2      OT      -0.834000       15.9994           0
     29779 TIP3     7068     TIP3     H1       HT       0.417000       1.00800           0
     29780 TIP3     7068     TIP3     H2       HT       0.417000       1.00800           0
     29781 TIP3     7069     TIP3     OH2      OT      -0.834000       15.9994           0
     29782 TIP3     7069     TIP3     H1       HT       0.417000       1.00800           0
     29783 TIP3     7069     TIP3     H2       HT       0.417000       1.00800           0
     29784 TIP3     7070     TIP3     OH2      OT      -0.834000       15.9994           0
     29785 TIP3     7070     TIP3     H1       HT       0.417000       1.00800           0
     29786 TIP3     7070     TIP3     H2       HT       0.417000       1.00800           0
     29787 TIP3     7071     TIP3     OH2      OT      -0.834000       15.9994           0
     29788 TIP3     7071     TIP3     H1       HT       0.417000       1.00800           0
     29789 TIP3     7071     TIP3     H2       HT       0.417000       1.00800           0
     29790 TIP3     7072     TIP3     OH2      OT      -0.834000       15.9994           0
     29791 TIP3     7072     TIP3     H1       HT       0.417000       1.00800           0
     29792 TIP3     7072     TIP3     H2       HT       0.417000       1.00800           0
     29793 TIP3     7073     TIP3     OH2      OT      -0.834000       15.9994           0
     29794 TIP3     7073     TIP3     H1       HT       0.417000       1.00800           0
     29795 TIP3     7073     TIP3     H2       HT       0.417000       1.00800           0
     29796 TIP3     7074     TIP3     OH2      OT      -0.834000       15.9994           0
     29797 TIP3     7074     TIP3     H1       HT       0.417000       1.00800           0
     29798 TIP3     7074     TIP3     H2       HT       0.417000       1.00800           0
     29799 TIP3     7075     TIP3     OH2      OT      -0.834000       15.9994           0
     29800 TIP3     7075     TIP3     H1       HT       0.417000       1.00800           0
     29801 TIP3     7075     TIP3     H2       HT       0.417000       1.00800           0
     29802 TIP3     7076     TIP3     OH2      OT      -0.834000       15.9994           0
     29803 TIP3     7076     TIP3     H1       HT       0.417000       1.00800           0
     29804 TIP3     7076     TIP3     H2       HT       0.417000       1.00800           0
     29805 TIP3     7077     TIP3     OH2      OT      -0.834000       15.9994           0
     29806 TIP3     7077     TIP3     H1       HT       0.417000       1.00800           0
     29807 TIP3     7077     TIP3     H2       HT       0.417000       1.00800           0
     29808 TIP3     7078     TIP3     OH2      OT      -0.834000       15.9994           0
     29809 TIP3     7078     TIP3     H1       HT       0.417000       1.00800           0
     29810 TIP3     7078     TIP3     H2       HT       0.417000       1.00800           0
     29811 TIP3     7079     TIP3     OH2      OT      -0.834000       15.9994           0
     29812 TIP3     7079     TIP3     H1       HT       0.417000       1.00800           0
     29813 TIP3     7079     TIP3     H2       HT       0.417000       1.00800           0
     29814 TIP3     7080     TIP3     OH2      OT      -0.834000       15.9994           0
     29815 TIP3     7080     TIP3     H1       HT       0.417000       1.00800           0
     29816 TIP3     7080     TIP3     H2       HT       0.417000       1.00800           0
     29817 IONS     1        POT      POT      POT       1.00000       39.0983           0
     29818 IONS     2        POT      POT      POT       1.00000       39.0983           0
     29819 IONS     3        POT      POT      POT       1.00000       39.0983           0
     29820 IONS     4        POT      POT      POT       1.00000       39.0983           0
     29821 IONS     5        POT      POT      POT       1.00000       39.0983           0
     29822 IONS     6        POT      POT      POT       1.00000       39.0983           0
     29823 IONS     7        POT      POT      POT       1.00000       39.0983           0
     29824 IONS     8        POT      POT      POT       1.00000       39.0983           0
     29825 IONS     9        POT      POT      POT       1.00000       39.0983           0
     29826 IONS     10       POT      POT      POT       1.00000       39.0983           0
     29827 IONS     11       POT      POT      POT       1.00000       39.0983           0
     29828 IONS     12       POT      POT      POT       1.00000       39.0983           0
     29829 IONS     13       POT      POT      POT       1.00000       39.0983           0
     29830 IONS     14       POT      POT      POT       1.00000       39.0983           0
     29831 IONS     15       POT      POT      POT       1.00000       39.0983           0
     29832 IONS     16       POT      POT      POT       1.00000       39.0983           0
     29833 IONS     17       POT      POT      POT       1.00000       39.0983           0
     29834 IONS     18       POT      POT      POT       1.00000       39.0983           0
     29835 IONS     19       CLA      CLA      CLA      -1.00000       35.4500           0
     29836 IONS     20       CLA      CLA      CLA      -1.00000       35.4500           0
     29837 IONS     21       CLA      CLA      CLA      -1.00000       35.4500           0
     29838 IONS     22       CLA      CLA      CLA      -1.00000       35.4500           0
     29839 IONS     23       CLA      CLA      CLA      -1.00000       35.4500           0
     29840 IONS     24       CLA      CLA      CLA      -1.00000       35.4500           0
     29841 IONS     25       CLA      CLA      CLA      -1.00000       35.4500           0
     29842 IONS     26       CLA      CLA      CLA      -1.00000       35.4500           0
     29843 IONS     27       CLA      CLA      CLA      -1.00000       35.4500           0
     29844 IONS     28       CLA      CLA      CLA      -1.00000       35.4500           0
     29845 IONS     29       CLA      CLA      CLA      -1.00000       35.4500           0
     29846 IONS     30       CLA      CLA      CLA      -1.00000       35.4500           0
     29847 IONS     31       CLA      CLA      CLA      -1.00000       35.4500           0
     29848 IONS     32       CLA      CLA      CLA      -1.00000       35.4500           0
     29849 IONS     33       CLA      CLA      CLA      -1.00000       35.4500           0
     29850 IONS     34       CLA      CLA      CLA      -1.00000       35.4500           0
     29851 IONS     35       CLA      CLA      CLA      -1.00000       35.4500           0
     29852 IONS     36       CLA      CLA      CLA      -1.00000       35.4500           0

     29752 !NBOND: bonds
         1         5         1         9         1        13         5         6
         5         7         5         8         9        10         9        11
         9        12        13        14        13        15        13        16
         1         2         2         3         2         4         2        17
        17        18        17        19        17        23        24        25
        23        20        20        24        20        21        20        22
        25        26        25        27        25        28        28        29
        28        36        28        30        36        37        36        38
        36        39        30        31        31        33        31        32
        33        34        33        35        33        45        45        46
        45        47        45        48        48        49        48        50
        48        51        51        52        51        53        51        54
        54        55        54        56        54        57        57        58
        57        59        57        60        60        61        60        62
        60        63        63        64        63        65        65        66
        65        67        67        68        67        69        67        70
        70        71        70        72        70        73        73        74
        73        75        73        76        76        77        76        78
        76        79        79        80        79        81        79        82
        82        83        82        84        82        85        85        86
        85        87        85        88        88        89        88        90
        88        91        39        40        40        42        40        41
        42        43        42        44        42        92        92        93
        92        94        92        95        95        96        95        97
        95        98        98        99        98       100        98       101
       101       102       101       103       101       104       104       105
       104       106       104       107       107       108       107       109
       107       110       110       111       110       112       110       113
       113       114       113       115       113       116       116       117
       116       118       116       119       119       120       119       121
       119       122       122       123       122       124       122       125
       125       126       125       127       125       128       128       129
       128       130       128       131       131       132       131       133
       131       134       135       139       135       143       135       147
       139       140       139       141       139       142       143       144
       143       145       143       146       147       148       147       149
       147       150       135       136       136       137       136       138
       136       151       151       152       151       153       151       157
       158       159       157       154       154       158       154       155
       154       156       159       160       159       161       159       162
       162       163       162       170       162       164       170       171
       170       172       170       173       164       165       165       167
       165       166       167       168       167       169       167       179
       179       180       179       181       179       182       182       183
       182       184       182       185       185       186       185       187
       185       188       188       189       188       190       188       191
       191       192       191       193       191       194       194       195
       194       196       194       197       197       198       197       199
       199       200       199       201       201       202       201       203
       201       204       204       205       204       206       204       207
       207       208       207       209       207       210       210       211
       210       212       210       213       213       214       213       215
       213       216       216       217       216       218       216       219
       219       220       219       221       219       222       222       223
       222       224       222       225       173       174       174       176
       174       175       176       177       176       178       176       226
       226       227       226       228       226       229       229       230
       229       231       229       232       232       233       232       234
       232       235       235       236       235       237       235       238
       238       239       238       240       238       241       241       242
       241       243       241       244       244       245       244       246
       244       247       247       248       247       249       247       250
       250       251       250       252       250       253       253       254
       253       255       253       256       256       257       256       258
       256       259       259       260       259       261       259       262
       262       263       262       264       262       265       265       266
       265       267       265       268       269       273       269       277
       269       281       273       274       273       275       273       276
       277       278       277       279       277       280       281       282
       281       283       281       284       269       270       270       271
       270       272       270       285       285       286       285       287
       285       291       292       293       291       288       288       292
       288       289       288       290       293       294       293       295
       293       296       296       297       296       304       296       298
       304       305       304       306       304       307       298       299
       299       301       299       300       301       302       301       303
       301       313       313       314       313       315       313       316
       316       317       316       318       316       319       319       320
       319       321       319       322       322       323       322       324
       322       325       325       326       325       327       325       328
       328       329       328       330       328       331       331       332
       331       333       333       334       333       335       335       336
       335       337       335       338       338       339       338       340
       338       341       341       342       341       343       341       344
       344       345       344       346       344       347       347       348
       347       349       347       350       350       351       350       352
       350       353       353       354       353       355       353       356
       356       357       356       358       356       359       307       308
       308       310       308       309       310       311       310       312
       310       360       360       361       360       362       360       363
       363       364       363       365       363       366       366       367
       366       368       366       369       369       370       369       371
       369       372       372       373       372       374       372       375
       375       376       375       377       375       378       378       379
       378       380       378       381       381       382       381       383
       381       384       384       385       384       386       384       387
       387       388       387       389       387       390       390       391
       390       392       390       393       393       394       393       395
       393       396       396       397       396       398       396       399
       399       400       399       401       399       402       403       407
       403       411       403       415       407       408       407       409
       407       410       411       412       411       413       411       414
       415       416       415       417       415       418       403       404
       404       405       404       406       404       419       419       420
       419       421       419       425       426       427       425       422
       422       426       422       423       422       424       427       428
       427       429       427       430       430       431       430       438
       430       432       438       439       438       440       438       441
       432       433       433       435       433       434       435       436
       435       437       435       447       447       448       447       449
       447       450       450       451       450       452       450       453
       453       454       453       455       453       456       456       457
       456       458       456       459       459       460       459       461
       459       462       462       463       462       464       462       465
       465       466       465       467       467       468       467       469
       469       470       469       471       469       472       472       473
       472       474       472       475       475       476       475       477
       475       478       478       479       478       480       478       481
       481       482       481       483       481       484       484       485
       484       486       484       487       487       488       487       489
       487       490       490       491       490       492       490       493
       441       442       442       444       442       443       444       445
       444       446       444       494       494       495       494       496
       494       497       497       498       497       499       497       500
       500       501       500       502       500       503       503       504
       503       505       503       506       506       507       506       508
       506       509       509       510       509       511       509       512
       512       513       512       514       512       515       515       516
       515       517       515       518       518       519       518       520
       518       521       521       522       521       523       521       524
       524       525       524       526       524       527       527       528
       527       529       527       530       530       531       530       532
       530       533       533       534       533       535       533       536
       537       541       537       545       537       549       541       542
       541       543       541       544       545       546       545       547
       545       548       549       550       549       551       549       552
       537       538       538       539       538       540       538       553
       553       554       553       555       553       559       560       561
       559       556       556       560       556       557       556       558
       561       562       561       563       561       564       564       565
       564       572       564       566       572       573       572       574
       572       575       566       567       567       569       567       568
       569       570       569       571       569       581       581       582
       581       583       581       584       584       585       584       586
       584       587       587       588       587       589       587       590
       590       591       590       592       590       593       593       594
       593       595       593       596       596       597       596       598
       596       599       599       600       599       601       601       602
       601       603       603       604       603       605       603       606
       606       607       606       608       606       609       609       610
       609       611       609       612       612       613       612       614
       612       615       615       616       615       617       615       618
       618       619       618       620       618       621       621       622
       621       623       621       624       624       625       624       626
       624       627       575       576       576       578       576       577
       578       579       578       580       578       628       628       629
       628       630       628       631       631       632       631       633
       631       634       634       635       634       636       634       637
       637       638       637       639       637       640       640       641
       640       642       640       643       643       644       643       645
       643       646       646       647       646       648       646       649
       649       650       649       651       649       652       652       653
       652       654       652       655       655       656       655       657
       655       658       658       659       658       660       658       661
       661       662       661       663       661       664       664       665
       664       666       664       667       667       668       667       669
       667       670       671       675       671       679       671       683
       675       676       675       677       675       678       679       680
       679       681       679       682       683       684       683       685
       683       686       671       672       672       673       672       674
       672       687       687       688       687       689       687       693
       694       695       693       690       690       694       690       691
       690       692       695       696       695       697       695       698
       698       699       698       706       698       700       706       707
       706       708       706       709       700       701       701       703
       701       702       703       704       703       705       703       715
       715       716       715       717       715       718       718       719
       718       720       718       721       721       722       721       723
       721       724       724       725       724       726       724       727
       727       728       727       729       727       730       730       731
       730       732       730       733       733       734       733       735
       735       736       735       737       737       738       737       739
       737       740       740       741       740       742       740       743
       743       744       743       745       743       746       746       747
       746       748       746       749       749       750       749       751
       749       752       752       753       752       754       752       755
       755       756       755       757       755       758       758       759
       758       760       758       761       709       710       710       712
       710       711       712       713       712       714       712       762
       762       763       762       764       762       765       765       766
       765       767       765       768       768       769       768       770
       768       771       771       772       771       773       771       774
       774       775       774       776       774       777       777       778
       777       779       777       780       780       781       780       782
       780       783       783       784       783       785       783       786
       786       787       786       788       786       789       789       790
       789       791       789       792       792       793       792       794
       792       795       795       796       795       797       795       798
       798       799       798       800       798       801       801       802
       801       803       801       804       805       809       805       813
       805       817       809       810       809       811       809       812
       813       814       813       815       813       816       817       818
       817       819       817       820       805       806       806       807
       806       808       806       821       821       822       821       823
       821       827       828       829       827       824       824       828
       824       825       824       826       829       830       829       831
       829       832       832       833       832       840       832       834
       840       841       840       842       840       843       834       835
       835       837       835       836       837       838       837       839
       837       849       849       850       849       851       849       852
       852       853       852       854       852       855       855       856
       855       857       855       858       858       859       858       860
       858       861       861       862       861       863       861       864
       864       865       864       866       864       867       867       868
       867       869       869       870       869       871       871       872
       871       873       871       874       874       875       874       876
       874       877       877       878       877       879       877       880
       880       881       880       882       880       883       883       884
       883       885       883       886       886       887       886       888
       886       889       889       890       889       891       889       892
       892       893       892       894       892       895       843       844
       844       846       844       845       846       847       846       848
       846       896       896       897       896       898       896       899
       899       900       899       901       899       902       902       903
       902       904       902       905       905       906       905       907
       905       908       908       909       908       910       908       911
       911       912       911       913       911       914       914       915
       914       916       914       917       917       918       917       919
       917       920       920       921       920       922       920       923
       923       924       923       925       923       926       926       927
       926       928       926       929       929       930       929       931
       929       932       932       933       932       934       932       935
       935       936       935       937       935       938       939       943
       939       947       939       951       943       944       943       945
       943       946       947       948       947       949       947       950
       951       952       951       953       951       954       939       940
       940       941       940       942       940       955       955       956
       955       957       955       961       962       963       961       958
       958       962       958       959       958       960       963       964
       963       965       963       966       966       967       966       974
       966       968       974       975       974       976       974       977
       968       969       969       971       969       970       971       972
       971       973       971       983       983       984       983       985
       983       986       986       987       986       988       986       989
       989       990       989       991       989       992       992       993
       992       994       992       995       995       996       995       997
       995       998       998       999       998      1000       998      1001
      1001      1002      1001      1003      1003      1004      1003      1005
      1005      1006      1005      1007      1005      1008      1008      1009
      1008      1010      1008      1011      1011      1012      1011      1013
      1011      1014      1014      1015      1014      1016      1014      1017
      1017      1018      1017      1019      1017      1020      1020      1021
      1020      1022      1020      1023      1023      1024      1023      1025
      1023      1026      1026      1027      1026      1028      1026      1029
       977       978       978       980       978       979       980       981
       980       982       980      1030      1030      1031      1030      1032
      1030      1033      1033      1034      1033      1035      1033      1036
      1036      1037      1036      1038      1036      1039      1039      1040
      1039      1041      1039      1042      1042      1043      1042      1044
      1042      1045      1045      1046      1045      1047      1045      1048
      1048      1049      1048      1050      1048      1051      1051      1052
      1051      1053      1051      1054      1054      1055      1054      1056
      1054      1057      1057      1058      1057      1059      1057      1060
      1060      1061      1060      1062      1060      1063      1063      1064
      1063      1065      1063      1066      1066      1067      1066      1068
      1066      1069      1069      1070      1069      1071      1069      1072
      1073      1077      1073      1081      1073      1085      1077      1078
      1077      1079      1077      1080      1081      1082      1081      1083
      1081      1084      1085      1086      1085      1087      1085      1088
      1073      1074      1074      1075      1074      1076      1074      1089
      1089      1090      1089      1091      1089      1095      1096      1097
      1095      1092      1092      1096      1092      1093      1092      1094
      1097      1098      1097      1099      1097      1100      1100      1101
      1100      1108      1100      1102      1108      1109      1108      1110
      1108      1111      1102      1103      1103      1105      1103      1104
      1105      1106      1105      1107      1105      1117      1117      1118
      1117      1119      1117      1120      1120      1121      1120      1122
      1120      1123      1123      1124      1123      1125      1123      1126
      1126      1127      1126      1128      1126      1129      1129      1130
      1129      1131      1129      1132      1132      1133      1132      1134
      1132      1135      1135      1136      1135      1137      1137      1138
      1137      1139      1139      1140      1139      1141      1139      1142
      1142      1143      1142      1144      1142      1145      1145      1146
      1145      1147      1145      1148      1148      1149      1148      1150
      1148      1151      1151      1152      1151      1153      1151      1154
      1154      1155      1154      1156      1154      1157      1157      1158
      1157      1159      1157      1160      1160      1161      1160      1162
      1160      1163      1111      1112      1112      1114      1112      1113
      1114      1115      1114      1116      1114      1164      1164      1165
      1164      1166      1164      1167      1167      1168      1167      1169
      1167      1170      1170      1171      1170      1172      1170      1173
      1173      1174      1173      1175      1173      1176      1176      1177
      1176      1178      1176      1179      1179      1180      1179      1181
      1179      1182      1182      1183      1182      1184      1182      1185
      1185      1186      1185      1187      1185      1188      1188      1189
      1188      1190      1188      1191      1191      1192      1191      1193
      1191      1194      1194      1195      1194      1196      1194      1197
      1197      1198      1197      1199      1197      1200      1200      1201
      1200      1202      1200      1203      1203      1204      1203      1205
      1203      1206      1207      1211      1207      1215      1207      1219
      1211      1212      1211      1213      1211      1214      1215      1216
      1215      1217      1215      1218      1219      1220      1219      1221
      1219      1222      1207      1208      1208      1209      1208      1210
      1208      1223      1223      1224      1223      1225      1223      1229
      1230      1231      1229      1226      1226      1230      1226      1227
      1226      1228      1231      1232      1231      1233      1231      1234
      1234      1235      1234      1242      1234      1236      1242      1243
      1242      1244      1242      1245      1236      1237      1237      1239
      1237      1238      1239      1240      1239      1241      1239      1251
      1251      1252      1251      1253      1251      1254      1254      1255
      1254      1256      1254      1257      1257      1258      1257      1259
      1257      1260      1260      1261      1260      1262      1260      1263
      1263      1264      1263      1265      1263      1266      1266      1267
      1266      1268      1266      1269      1269      1270      1269      1271
      1271      1272      1271      1273      1273      1274      1273      1275
      1273      1276      1276      1277      1276      1278      1276      1279
      1279      1280      1279      1281      1279      1282      1282      1283
      1282      1284      1282      1285      1285      1286      1285      1287
      1285      1288      1288      1289      1288      1290      1288      1291
      1291      1292      1291      1293      1291      1294      1294      1295
      1294      1296      1294      1297      1245      1246      1246      1248
      1246      1247      1248      1249      1248      1250      1248      1298
      1298      1299      1298      1300      1298      1301      1301      1302
      1301      1303      1301      1304      1304      1305      1304      1306
      1304      1307      1307      1308      1307      1309      1307      1310
      1310      1311      1310      1312      1310      1313      1313      1314
      1313      1315      1313      1316      1316      1317      1316      1318
      1316      1319      1319      1320      1319      1321      1319      1322
      1322      1323      1322      1324      1322      1325      1325      1326
      1325      1327      1325      1328      1328      1329      1328      1330
      1328      1331      1331      1332      1331      1333      1331      1334
      1334      1335      1334      1336      1334      1337      1337      1338
      1337      1339      1337      1340      1341      1345      1341      1349
      1341      1353      1345      1346      1345      1347      1345      1348
      1349      1350      1349      1351      1349      1352      1353      1354
      1353      1355      1353      1356      1341      1342      1342      1343
      1342      1344      1342      1357      1357      1358      1357      1359
      1357      1363      1364      1365      1363      1360      1360      1364
      1360      1361      1360      1362      1365      1366      1365      1367
      1365      1368      1368      1369      1368      1376      1368      1370
      1376      1377      1376      1378      1376      1379      1370      1371
      1371      1373      1371      1372      1373      1374      1373      1375
      1373      1385      1385      1386      1385      1387      1385      1388
      1388      1389      1388      1390      1388      1391      1391      1392
      1391      1393      1391      1394      1394      1395      1394      1396
      1394      1397      1397      1398      1397      1399      1397      1400
      1400      1401      1400      1402      1400      1403      1403      1404
      1403      1405      1405      1406      1405      1407      1407      1408
      1407      1409      1407      1410      1410      1411      1410      1412
      1410      1413      1413      1414      1413      1415      1413      1416
      1416      1417      1416      1418      1416      1419      1419      1420
      1419      1421      1419      1422      1422      1423      1422      1424
      1422      1425      1425      1426      1425      1427      1425      1428
      1428      1429      1428      1430      1428      1431      1379      1380
      1380      1382      1380      1381      1382      1383      1382      1384
      1382      1432      1432      1433      1432      1434      1432      1435
      1435      1436      1435      1437      1435      1438      1438      1439
      1438      1440      1438      1441      1441      1442      1441      1443
      1441      1444      1444      1445      1444      1446      1444      1447
      1447      1448      1447      1449      1447      1450      1450      1451
      1450      1452      1450      1453      1453      1454      1453      1455
      1453      1456      1456      1457      1456      1458      1456      1459
      1459      1460      1459      1461      1459      1462      1462      1463
      1462      1464      1462      1465      1465      1466      1465      1467
      1465      1468      1468      1469      1468      1470      1468      1471
      1471      1472      1471      1473      1471      1474      1475      1479
      1475      1483      1475      1487      1479      1480      1479      1481
      1479      1482      1483      1484      1483      1485      1483      1486
      1487      1488      1487      1489      1487      1490      1475      1476
      1476      1477      1476      1478      1476      1491      1491      1492
      1491      1493      1491      1497      1498      1499      1497      1494
      1494      1498      1494      1495      1494      1496      1499      1500
      1499      1501      1499      1502      1502      1503      1502      1510
      1502      1504      1510      1511      1510      1512      1510      1513
      1504      1505      1505      1507      1505      1506      1507      1508
      1507      1509      1507      1519      1519      1520      1519      1521
      1519      1522      1522      1523      1522      1524      1522      1525
      1525      1526      1525      1527      1525      1528      1528      1529
      1528      1530      1528      1531      1531      1532      1531      1533
      1531      1534      1534      1535      1534      1536      1534      1537
      1537      1538      1537      1539      1539      1540      1539      1541
      1541      1542      1541      1543      1541      1544      1544      1545
      1544      1546      1544      1547      1547      1548      1547      1549
      1547      1550      1550      1551      1550      1552      1550      1553
      1553      1554      1553      1555      1553      1556      1556      1557
      1556      1558      1556      1559      1559      1560      1559      1561
      1559      1562      1562      1563      1562      1564      1562      1565
      1513      1514      1514      1516      1514      1515      1516      1517
      1516      1518      1516      1566      1566      1567      1566      1568
      1566      1569      1569      1570      1569      1571      1569      1572
      1572      1573      1572      1574      1572      1575      1575      1576
      1575      1577      1575      1578      1578      1579      1578      1580
      1578      1581      1581      1582      1581      1583      1581      1584
      1584      1585      1584      1586      1584      1587      1587      1588
      1587      1589      1587      1590      1590      1591      1590      1592
      1590      1593      1593      1594      1593      1595      1593      1596
      1596      1597      1596      1598      1596      1599      1599      1600
      1599      1601      1599      1602      1602      1603      1602      1604
      1602      1605      1605      1606      1605      1607      1605      1608
      1609      1613      1609      1617      1609      1621      1613      1614
      1613      1615      1613      1616      1617      1618      1617      1619
      1617      1620      1621      1622      1621      1623      1621      1624
      1609      1610      1610      1611      1610      1612      1610      1625
      1625      1626      1625      1627      1625      1631      1632      1633
      1631      1628      1628      1632      1628      1629      1628      1630
      1633      1634      1633      1635      1633      1636      1636      1637
      1636      1644      1636      1638      1644      1645      1644      1646
      1644      1647      1638      1639      1639      1641      1639      1640
      1641      1642      1641      1643      1641      1653      1653      1654
      1653      1655      1653      1656      1656      1657      1656      1658
      1656      1659      1659      1660      1659      1661      1659      1662
      1662      1663      1662      1664      1662      1665      1665      1666
      1665      1667      1665      1668      1668      1669      1668      1670
      1668      1671      1671      1672      1671      1673      1673      1674
      1673      1675      1675      1676      1675      1677      1675      1678
      1678      1679      1678      1680      1678      1681      1681      1682
      1681      1683      1681      1684      1684      1685      1684      1686
      1684      1687      1687      1688      1687      1689      1687      1690
      1690      1691      1690      1692      1690      1693      1693      1694
      1693      1695      1693      1696      1696      1697      1696      1698
      1696      1699      1647      1648      1648      1650      1648      1649
      1650      1651      1650      1652      1650      1700      1700      1701
      1700      1702      1700      1703      1703      1704      1703      1705
      1703      1706      1706      1707      1706      1708      1706      1709
      1709      1710      1709      1711      1709      1712      1712      1713
      1712      1714      1712      1715      1715      1716      1715      1717
      1715      1718      1718      1719      1718      1720      1718      1721
      1721      1722      1721      1723      1721      1724      1724      1725
      1724      1726      1724      1727      1727      1728      1727      1729
      1727      1730      1730      1731      1730      1732      1730      1733
      1733      1734      1733      1735      1733      1736      1736      1737
      1736      1738      1736      1739      1739      1740      1739      1741
      1739      1742      1743      1747      1743      1751      1743      1755
      1747      1748      1747      1749      1747      1750      1751      1752
      1751      1753      1751      1754      1755      1756      1755      1757
      1755      1758      1743      1744      1744      1745      1744      1746
      1744      1759      1759      1760      1759      1761      1759      1765
      1766      1767      1765      1762      1762      1766      1762      1763
      1762      1764      1767      1768      1767      1769      1767      1770
      1770      1771      1770      1778      1770      1772      1778      1779
      1778      1780      1778      1781      1772      1773      1773      1775
      1773      1774      1775      1776      1775      1777      1775      1787
      1787      1788      1787      1789      1787      1790      1790      1791
      1790      1792      1790      1793      1793      1794      1793      1795
      1793      1796      1796      1797      1796      1798      1796      1799
      1799      1800      1799      1801      1799      1802      1802      1803
      1802      1804      1802      1805      1805      1806      1805      1807
      1807      1808      1807      1809      1809      1810      1809      1811
      1809      1812      1812      1813      1812      1814      1812      1815
      1815      1816      1815      1817      1815      1818      1818      1819
      1818      1820      1818      1821      1821      1822      1821      1823
      1821      1824      1824      1825      1824      1826      1824      1827
      1827      1828      1827      1829      1827      1830      1830      1831
      1830      1832      1830      1833      1781      1782      1782      1784
      1782      1783      1784      1785      1784      1786      1784      1834
      1834      1835      1834      1836      1834      1837      1837      1838
      1837      1839      1837      1840      1840      1841      1840      1842
      1840      1843      1843      1844      1843      1845      1843      1846
      1846      1847      1846      1848      1846      1849      1849      1850
      1849      1851      1849      1852      1852      1853      1852      1854
      1852      1855      1855      1856      1855      1857      1855      1858
      1858      1859      1858      1860      1858      1861      1861      1862
      1861      1863      1861      1864      1864      1865      1864      1866
      1864      1867      1867      1868      1867      1869      1867      1870
      1870      1871      1870      1872      1870      1873      1873      1874
      1873      1875      1873      1876      1877      1881      1877      1885
      1877      1889      1881      1882      1881      1883      1881      1884
      1885      1886      1885      1887      1885      1888      1889      1890
      1889      1891      1889      1892      1877      1878      1878      1879
      1878      1880      1878      1893      1893      1894      1893      1895
      1893      1899      1900      1901      1899      1896      1896      1900
      1896      1897      1896      1898      1901      1902      1901      1903
      1901      1904      1904      1905      1904      1912      1904      1906
      1912      1913      1912      1914      1912      1915      1906      1907
      1907      1909      1907      1908      1909      1910      1909      1911
      1909      1921      1921      1922      1921      1923      1921      1924
      1924      1925      1924      1926      1924      1927      1927      1928
      1927      1929      1927      1930      1930      1931      1930      1932
      1930      1933      1933      1934      1933      1935      1933      1936
      1936      1937      1936      1938      1936      1939      1939      1940
      1939      1941      1941      1942      1941      1943      1943      1944
      1943      1945      1943      1946      1946      1947      1946      1948
      1946      1949      1949      1950      1949      1951      1949      1952
      1952      1953      1952      1954      1952      1955      1955      1956
      1955      1957      1955      1958      1958      1959      1958      1960
      1958      1961      1961      1962      1961      1963      1961      1964
      1964      1965      1964      1966      1964      1967      1915      1916
      1916      1918      1916      1917      1918      1919      1918      1920
      1918      1968      1968      1969      1968      1970      1968      1971
      1971      1972      1971      1973      1971      1974      1974      1975
      1974      1976      1974      1977      1977      1978      1977      1979
      1977      1980      1980      1981      1980      1982      1980      1983
      1983      1984      1983      1985      1983      1986      1986      1987
      1986      1988      1986      1989      1989      1990      1989      1991
      1989      1992      1992      1993      1992      1994      1992      1995
      1995      1996      1995      1997      1995      1998      1998      1999
      1998      2000      1998      2001      2001      2002      2001      2003
      2001      2004      2004      2005      2004      2006      2004      2007
      2007      2008      2007      2009      2007      2010      2011      2015
      2011      2019      2011      2023      2015      2016      2015      2017
      2015      2018      2019      2020      2019      2021      2019      2022
      2023      2024      2023      2025      2023      2026      2011      2012
      2012      2013      2012      2014      2012      2027      2027      2028
      2027      2029      2027      2033      2034      2035      2033      2030
      2030      2034      2030      2031      2030      2032      2035      2036
      2035      2037      2035      2038      2038      2039      2038      2046
      2038      2040      2046      2047      2046      2048      2046      2049
      2040      2041      2041      2043      2041      2042      2043      2044
      2043      2045      2043      2055      2055      2056      2055      2057
      2055      2058      2058      2059      2058      2060      2058      2061
      2061      2062      2061      2063      2061      2064      2064      2065
      2064      2066      2064      2067      2067      2068      2067      2069
      2067      2070      2070      2071      2070      2072      2070      2073
      2073      2074      2073      2075      2075      2076      2075      2077
      2077      2078      2077      2079      2077      2080      2080      2081
      2080      2082      2080      2083      2083      2084      2083      2085
      2083      2086      2086      2087      2086      2088      2086      2089
      2089      2090      2089      2091      2089      2092      2092      2093
      2092      2094      2092      2095      2095      2096      2095      2097
      2095      2098      2098      2099      2098      2100      2098      2101
      2049      2050      2050      2052      2050      2051      2052      2053
      2052      2054      2052      2102      2102      2103      2102      2104
      2102      2105      2105      2106      2105      2107      2105      2108
      2108      2109      2108      2110      2108      2111      2111      2112
      2111      2113      2111      2114      2114      2115      2114      2116
      2114      2117      2117      2118      2117      2119      2117      2120
      2120      2121      2120      2122      2120      2123      2123      2124
      2123      2125      2123      2126      2126      2127      2126      2128
      2126      2129      2129      2130      2129      2131      2129      2132
      2132      2133      2132      2134      2132      2135      2135      2136
      2135      2137      2135      2138      2138      2139      2138      2140
      2138      2141      2141      2142      2141      2143      2141      2144
      2145      2149      2145      2153      2145      2157      2149      2150
      2149      2151      2149      2152      2153      2154      2153      2155
      2153      2156      2157      2158      2157      2159      2157      2160
      2145      2146      2146      2147      2146      2148      2146      2161
      2161      2162      2161      2163      2161      2167      2168      2169
      2167      2164      2164      2168      2164      2165      2164      2166
      2169      2170      2169      2171      2169      2172      2172      2173
      2172      2180      2172      2174      2180      2181      2180      2182
      2180      2183      2174      2175      2175      2177      2175      2176
      2177      2178      2177      2179      2177      2189      2189      2190
      2189      2191      2189      2192      2192      2193      2192      2194
      2192      2195      2195      2196      2195      2197      2195      2198
      2198      2199      2198      2200      2198      2201      2201      2202
      2201      2203      2201      2204      2204      2205      2204      2206
      2204      2207      2207      2208      2207      2209      2209      2210
      2209      2211      2211      2212      2211      2213      2211      2214
      2214      2215      2214      2216      2214      2217      2217      2218
      2217      2219      2217      2220      2220      2221      2220      2222
      2220      2223      2223      2224      2223      2225      2223      2226
      2226      2227      2226      2228      2226      2229      2229      2230
      2229      2231      2229      2232      2232      2233      2232      2234
      2232      2235      2183      2184      2184      2186      2184      2185
      2186      2187      2186      2188      2186      2236      2236      2237
      2236      2238      2236      2239      2239      2240      2239      2241
      2239      2242      2242      2243      2242      2244      2242      2245
      2245      2246      2245      2247      2245      2248      2248      2249
      2248      2250      2248      2251      2251      2252      2251      2253
      2251      2254      2254      2255      2254      2256      2254      2257
      2257      2258      2257      2259      2257      2260      2260      2261
      2260      2262      2260      2263      2263      2264      2263      2265
      2263      2266      2266      2267      2266      2268      2266      2269
      2269      2270      2269      2271      2269      2272      2272      2273
      2272      2274      2272      2275      2275      2276      2275      2277
      2275      2278      2279      2283      2279      2287      2279      2291
      2283      2284      2283      2285      2283      2286      2287      2288
      2287      2289      2287      2290      2291      2292      2291      2293
      2291      2294      2279      2280      2280      2281      2280      2282
      2280      2295      2295      2296      2295      2297      2295      2301
      2302      2303      2301      2298      2298      2302      2298      2299
      2298      2300      2303      2304      2303      2305      2303      2306
      2306      2307      2306      2314      2306      2308      2314      2315
      2314      2316      2314      2317      2308      2309      2309      2311
      2309      2310      2311      2312      2311      2313      2311      2323
      2323      2324      2323      2325      2323      2326      2326      2327
      2326      2328      2326      2329      2329      2330      2329      2331
      2329      2332      2332      2333      2332      2334      2332      2335
      2335      2336      2335      2337      2335      2338      2338      2339
      2338      2340      2338      2341      2341      2342      2341      2343
      2343      2344      2343      2345      2345      2346      2345      2347
      2345      2348      2348      2349      2348      2350      2348      2351
      2351      2352      2351      2353      2351      2354      2354      2355
      2354      2356      2354      2357      2357      2358      2357      2359
      2357      2360      2360      2361      2360      2362      2360      2363
      2363      2364      2363      2365      2363      2366      2366      2367
      2366      2368      2366      2369      2317      2318      2318      2320
      2318      2319      2320      2321      2320      2322      2320      2370
      2370      2371      2370      2372      2370      2373      2373      2374
      2373      2375      2373      2376      2376      2377      2376      2378
      2376      2379      2379      2380      2379      2381      2379      2382
      2382      2383      2382      2384      2382      2385      2385      2386
      2385      2387      2385      2388      2388      2389      2388      2390
      2388      2391      2391      2392      2391      2393      2391      2394
      2394      2395      2394      2396      2394      2397      2397      2398
      2397      2399      2397      2400      2400      2401      2400      2402
      2400      2403      2403      2404      2403      2405      2403      2406
      2406      2407      2406      2408      2406      2409      2409      2410
      2409      2411      2409      2412      2413      2417      2413      2421
      2413      2425      2417      2418      2417      2419      2417      2420
      2421      2422      2421      2423      2421      2424      2425      2426
      2425      2427      2425      2428      2413      2414      2414      2415
      2414      2416      2414      2429      2429      2430      2429      2431
      2429      2435      2436      2437      2435      2432      2432      2436
      2432      2433      2432      2434      2437      2438      2437      2439
      2437      2440      2440      2441      2440      2448      2440      2442
      2448      2449      2448      2450      2448      2451      2442      2443
      2443      2445      2443      2444      2445      2446      2445      2447
      2445      2457      2457      2458      2457      2459      2457      2460
      2460      2461      2460      2462      2460      2463      2463      2464
      2463      2465      2463      2466      2466      2467      2466      2468
      2466      2469      2469      2470      2469      2471      2469      2472
      2472      2473      2472      2474      2472      2475      2475      2476
      2475      2477      2477      2478      2477      2479      2479      2480
      2479      2481      2479      2482      2482      2483      2482      2484
      2482      2485      2485      2486      2485      2487      2485      2488
      2488      2489      2488      2490      2488      2491      2491      2492
      2491      2493      2491      2494      2494      2495      2494      2496
      2494      2497      2497      2498      2497      2499      2497      2500
      2500      2501      2500      2502      2500      2503      2451      2452
      2452      2454      2452      2453      2454      2455      2454      2456
      2454      2504      2504      2505      2504      2506      2504      2507
      2507      2508      2507      2509      2507      2510      2510      2511
      2510      2512      2510      2513      2513      2514      2513      2515
      2513      2516      2516      2517      2516      2518      2516      2519
      2519      2520      2519      2521      2519      2522      2522      2523
      2522      2524      2522      2525      2525      2526      2525      2527
      2525      2528      2528      2529      2528      2530      2528      2531
      2531      2532      2531      2533      2531      2534      2534      2535
      2534      2536      2534      2537      2537      2538      2537      2539
      2537      2540      2540      2541      2540      2542      2540      2543
      2543      2544      2543      2545      2543      2546      2547      2551
      2547      2555      2547      2559      2551      2552      2551      2553
      2551      2554      2555      2556      2555      2557      2555      2558
      2559      2560      2559      2561      2559      2562      2547      2548
      2548      2549      2548      2550      2548      2563      2563      2564
      2563      2565      2563      2569      2570      2571      2569      2566
      2566      2570      2566      2567      2566      2568      2571      2572
      2571      2573      2571      2574      2574      2575      2574      2582
      2574      2576      2582      2583      2582      2584      2582      2585
      2576      2577      2577      2579      2577      2578      2579      2580
      2579      2581      2579      2591      2591      2592      2591      2593
      2591      2594      2594      2595      2594      2596      2594      2597
      2597      2598      2597      2599      2597      2600      2600      2601
      2600      2602      2600      2603      2603      2604      2603      2605
      2603      2606      2606      2607      2606      2608      2606      2609
      2609      2610      2609      2611      2611      2612      2611      2613
      2613      2614      2613      2615      2613      2616      2616      2617
      2616      2618      2616      2619      2619      2620      2619      2621
      2619      2622      2622      2623      2622      2624      2622      2625
      2625      2626      2625      2627      2625      2628      2628      2629
      2628      2630      2628      2631      2631      2632      2631      2633
      2631      2634      2634      2635      2634      2636      2634      2637
      2585      2586      2586      2588      2586      2587      2588      2589
      2588      2590      2588      2638      2638      2639      2638      2640
      2638      2641      2641      2642      2641      2643      2641      2644
      2644      2645      2644      2646      2644      2647      2647      2648
      2647      2649      2647      2650      2650      2651      2650      2652
      2650      2653      2653      2654      2653      2655      2653      2656
      2656      2657      2656      2658      2656      2659      2659      2660
      2659      2661      2659      2662      2662      2663      2662      2664
      2662      2665      2665      2666      2665      2667      2665      2668
      2668      2669      2668      2670      2668      2671      2671      2672
      2671      2673      2671      2674      2674      2675      2674      2676
      2674      2677      2677      2678      2677      2679      2677      2680
      2681      2685      2681      2689      2681      2693      2685      2686
      2685      2687      2685      2688      2689      2690      2689      2691
      2689      2692      2693      2694      2693      2695      2693      2696
      2681      2682      2682      2683      2682      2684      2682      2697
      2697      2698      2697      2699      2697      2703      2704      2705
      2703      2700      2700      2704      2700      2701      2700      2702
      2705      2706      2705      2707      2705      2708      2708      2709
      2708      2716      2708      2710      2716      2717      2716      2718
      2716      2719      2710      2711      2711      2713      2711      2712
      2713      2714      2713      2715      2713      2725      2725      2726
      2725      2727      2725      2728      2728      2729      2728      2730
      2728      2731      2731      2732      2731      2733      2731      2734
      2734      2735      2734      2736      2734      2737      2737      2738
      2737      2739      2737      2740      2740      2741      2740      2742
      2740      2743      2743      2744      2743      2745      2745      2746
      2745      2747      2747      2748      2747      2749      2747      2750
      2750      2751      2750      2752      2750      2753      2753      2754
      2753      2755      2753      2756      2756      2757      2756      2758
      2756      2759      2759      2760      2759      2761      2759      2762
      2762      2763      2762      2764      2762      2765      2765      2766
      2765      2767      2765      2768      2768      2769      2768      2770
      2768      2771      2719      2720      2720      2722      2720      2721
      2722      2723      2722      2724      2722      2772      2772      2773
      2772      2774      2772      2775      2775      2776      2775      2777
      2775      2778      2778      2779      2778      2780      2778      2781
      2781      2782      2781      2783      2781      2784      2784      2785
      2784      2786      2784      2787      2787      2788      2787      2789
      2787      2790      2790      2791      2790      2792      2790      2793
      2793      2794      2793      2795      2793      2796      2796      2797
      2796      2798      2796      2799      2799      2800      2799      2801
      2799      2802      2802      2803      2802      2804      2802      2805
      2805      2806      2805      2807      2805      2808      2808      2809
      2808      2810      2808      2811      2811      2812      2811      2813
      2811      2814      2815      2819      2815      2823      2815      2827
      2819      2820      2819      2821      2819      2822      2823      2824
      2823      2825      2823      2826      2827      2828      2827      2829
      2827      2830      2815      2816      2816      2817      2816      2818
      2816      2831      2831      2832      2831      2833      2831      2837
      2838      2839      2837      2834      2834      2838      2834      2835
      2834      2836      2839      2840      2839      2841      2839      2842
      2842      2843      2842      2850      2842      2844      2850      2851
      2850      2852      2850      2853      2844      2845      2845      2847
      2845      2846      2847      2848      2847      2849      2847      2859
      2859      2860      2859      2861      2859      2862      2862      2863
      2862      2864      2862      2865      2865      2866      2865      2867
      2865      2868      2868      2869      2868      2870      2868      2871
      2871      2872      2871      2873      2871      2874      2874      2875
      2874      2876      2874      2877      2877      2878      2877      2879
      2879      2880      2879      2881      2881      2882      2881      2883
      2881      2884      2884      2885      2884      2886      2884      2887
      2887      2888      2887      2889      2887      2890      2890      2891
      2890      2892      2890      2893      2893      2894      2893      2895
      2893      2896      2896      2897      2896      2898      2896      2899
      2899      2900      2899      2901      2899      2902      2902      2903
      2902      2904      2902      2905      2853      2854      2854      2856
      2854      2855      2856      2857      2856      2858      2856      2906
      2906      2907      2906      2908      2906      2909      2909      2910
      2909      2911      2909      2912      2912      2913      2912      2914
      2912      2915      2915      2916      2915      2917      2915      2918
      2918      2919      2918      2920      2918      2921      2921      2922
      2921      2923      2921      2924      2924      2925      2924      2926
      2924      2927      2927      2928      2927      2929      2927      2930
      2930      2931      2930      2932      2930      2933      2933      2934
      2933      2935      2933      2936      2936      2937      2936      2938
      2936      2939      2939      2940      2939      2941      2939      2942
      2942      2943      2942      2944      2942      2945      2945      2946
      2945      2947      2945      2948      2949      2953      2949      2957
      2949      2961      2953      2954      2953      2955      2953      2956
      2957      2958      2957      2959      2957      2960      2961      2962
      2961      2963      2961      2964      2949      2950      2950      2951
      2950      2952      2950      2965      2965      2966      2965      2967
      2965      2971      2972      2973      2971      2968      2968      2972
      2968      2969      2968      2970      2973      2974      2973      2975
      2973      2976      2976      2977      2976      2984      2976      2978
      2984      2985      2984      2986      2984      2987      2978      2979
      2979      2981      2979      2980      2981      2982      2981      2983
      2981      2993      2993      2994      2993      2995      2993      2996
      2996      2997      2996      2998      2996      2999      2999      3000
      2999      3001      2999      3002      3002      3003      3002      3004
      3002      3005      3005      3006      3005      3007      3005      3008
      3008      3009      3008      3010      3008      3011      3011      3012
      3011      3013      3013      3014      3013      3015      3015      3016
      3015      3017      3015      3018      3018      3019      3018      3020
      3018      3021      3021      3022      3021      3023      3021      3024
      3024      3025      3024      3026      3024      3027      3027      3028
      3027      3029      3027      3030      3030      3031      3030      3032
      3030      3033      3033      3034      3033      3035      3033      3036
      3036      3037      3036      3038      3036      3039      2987      2988
      2988      2990      2988      2989      2990      2991      2990      2992
      2990      3040      3040      3041      3040      3042      3040      3043
      3043      3044      3043      3045      3043      3046      3046      3047
      3046      3048      3046      3049      3049      3050      3049      3051
      3049      3052      3052      3053      3052      3054      3052      3055
      3055      3056      3055      3057      3055      3058      3058      3059
      3058      3060      3058      3061      3061      3062      3061      3063
      3061      3064      3064      3065      3064      3066      3064      3067
      3067      3068      3067      3069      3067      3070      3070      3071
      3070      3072      3070      3073      3073      3074      3073      3075
      3073      3076      3076      3077      3076      3078      3076      3079
      3079      3080      3079      3081      3079      3082      3083      3087
      3083      3091      3083      3095      3087      3088      3087      3089
      3087      3090      3091      3092      3091      3093      3091      3094
      3095      3096      3095      3097      3095      3098      3083      3084
      3084      3085      3084      3086      3084      3099      3099      3100
      3099      3101      3099      3105      3106      3107      3105      3102
      3102      3106      3102      3103      3102      3104      3107      3108
      3107      3109      3107      3110      3110      3111      3110      3118
      3110      3112      3118      3119      3118      3120      3118      3121
      3112      3113      3113      3115      3113      3114      3115      3116
      3115      3117      3115      3127      3127      3128      3127      3129
      3127      3130      3130      3131      3130      3132      3130      3133
      3133      3134      3133      3135      3133      3136      3136      3137
      3136      3138      3136      3139      3139      3140      3139      3141
      3139      3142      3142      3143      3142      3144      3142      3145
      3145      3146      3145      3147      3147      3148      3147      3149
      3149      3150      3149      3151      3149      3152      3152      3153
      3152      3154      3152      3155      3155      3156      3155      3157
      3155      3158      3158      3159      3158      3160      3158      3161
      3161      3162      3161      3163      3161      3164      3164      3165
      3164      3166      3164      3167      3167      3168      3167      3169
      3167      3170      3170      3171      3170      3172      3170      3173
      3121      3122      3122      3124      3122      3123      3124      3125
      3124      3126      3124      3174      3174      3175      3174      3176
      3174      3177      3177      3178      3177      3179      3177      3180
      3180      3181      3180      3182      3180      3183      3183      3184
      3183      3185      3183      3186      3186      3187      3186      3188
      3186      3189      3189      3190      3189      3191      3189      3192
      3192      3193      3192      3194      3192      3195      3195      3196
      3195      3197      3195      3198      3198      3199      3198      3200
      3198      3201      3201      3202      3201      3203      3201      3204
      3204      3205      3204      3206      3204      3207      3207      3208
      3207      3209      3207      3210      3210      3211      3210      3212
      3210      3213      3213      3214      3213      3215      3213      3216
      3217      3221      3217      3225      3217      3229      3221      3222
      3221      3223      3221      3224      3225      3226      3225      3227
      3225      3228      3229      3230      3229      3231      3229      3232
      3217      3218      3218      3219      3218      3220      3218      3233
      3233      3234      3233      3235      3233      3239      3240      3241
      3239      3236      3236      3240      3236      3237      3236      3238
      3241      3242      3241      3243      3241      3244      3244      3245
      3244      3252      3244      3246      3252      3253      3252      3254
      3252      3255      3246      3247      3247      3249      3247      3248
      3249      3250      3249      3251      3249      3261      3261      3262
      3261      3263      3261      3264      3264      3265      3264      3266
      3264      3267      3267      3268      3267      3269      3267      3270
      3270      3271      3270      3272      3270      3273      3273      3274
      3273      3275      3273      3276      3276      3277      3276      3278
      3276      3279      3279      3280      3279      3281      3281      3282
      3281      3283      3283      3284      3283      3285      3283      3286
      3286      3287      3286      3288      3286      3289      3289      3290
      3289      3291      3289      3292      3292      3293      3292      3294
      3292      3295      3295      3296      3295      3297      3295      3298
      3298      3299      3298      3300      3298      3301      3301      3302
      3301      3303      3301      3304      3304      3305      3304      3306
      3304      3307      3255      3256      3256      3258      3256      3257
      3258      3259      3258      3260      3258      3308      3308      3309
      3308      3310      3308      3311      3311      3312      3311      3313
      3311      3314      3314      3315      3314      3316      3314      3317
      3317      3318      3317      3319      3317      3320      3320      3321
      3320      3322      3320      3323      3323      3324      3323      3325
      3323      3326      3326      3327      3326      3328      3326      3329
      3329      3330      3329      3331      3329      3332      3332      3333
      3332      3334      3332      3335      3335      3336      3335      3337
      3335      3338      3338      3339      3338      3340      3338      3341
      3341      3342      3341      3343      3341      3344      3344      3345
      3344      3346      3344      3347      3347      3348      3347      3349
      3347      3350      3351      3355      3351      3359      3351      3363
      3355      3356      3355      3357      3355      3358      3359      3360
      3359      3361      3359      3362      3363      3364      3363      3365
      3363      3366      3351      3352      3352      3353      3352      3354
      3352      3367      3367      3368      3367      3369      3367      3373
      3374      3375      3373      3370      3370      3374      3370      3371
      3370      3372      3375      3376      3375      3377      3375      3378
      3378      3379      3378      3386      3378      3380      3386      3387
      3386      3388      3386      3389      3380      3381      3381      3383
      3381      3382      3383      3384      3383      3385      3383      3395
      3395      3396      3395      3397      3395      3398      3398      3399
      3398      3400      3398      3401      3401      3402      3401      3403
      3401      3404      3404      3405      3404      3406      3404      3407
      3407      3408      3407      3409      3407      3410      3410      3411
      3410      3412      3410      3413      3413      3414      3413      3415
      3415      3416      3415      3417      3417      3418      3417      3419
      3417      3420      3420      3421      3420      3422      3420      3423
      3423      3424      3423      3425      3423      3426      3426      3427
      3426      3428      3426      3429      3429      3430      3429      3431
      3429      3432      3432      3433      3432      3434      3432      3435
      3435      3436      3435      3437      3435      3438      3438      3439
      3438      3440      3438      3441      3389      3390      3390      3392
      3390      3391      3392      3393      3392      3394      3392      3442
      3442      3443      3442      3444      3442      3445      3445      3446
      3445      3447      3445      3448      3448      3449      3448      3450
      3448      3451      3451      3452      3451      3453      3451      3454
      3454      3455      3454      3456      3454      3457      3457      3458
      3457      3459      3457      3460      3460      3461      3460      3462
      3460      3463      3463      3464      3463      3465      3463      3466
      3466      3467      3466      3468      3466      3469      3469      3470
      3469      3471      3469      3472      3472      3473      3472      3474
      3472      3475      3475      3476      3475      3477      3475      3478
      3478      3479      3478      3480      3478      3481      3481      3482
      3481      3483      3481      3484      3485      3489      3485      3493
      3485      3497      3489      3490      3489      3491      3489      3492
      3493      3494      3493      3495      3493      3496      3497      3498
      3497      3499      3497      3500      3485      3486      3486      3487
      3486      3488      3486      3501      3501      3502      3501      3503
      3501      3507      3508      3509      3507      3504      3504      3508
      3504      3505      3504      3506      3509      3510      3509      3511
      3509      3512      3512      3513      3512      3520      3512      3514
      3520      3521      3520      3522      3520      3523      3514      3515
      3515      3517      3515      3516      3517      3518      3517      3519
      3517      3529      3529      3530      3529      3531      3529      3532
      3532      3533      3532      3534      3532      3535      3535      3536
      3535      3537      3535      3538      3538      3539      3538      3540
      3538      3541      3541      3542      3541      3543      3541      3544
      3544      3545      3544      3546      3544      3547      3547      3548
      3547      3549      3549      3550      3549      3551      3551      3552
      3551      3553      3551      3554      3554      3555      3554      3556
      3554      3557      3557      3558      3557      3559      3557      3560
      3560      3561      3560      3562      3560      3563      3563      3564
      3563      3565      3563      3566      3566      3567      3566      3568
      3566      3569      3569      3570      3569      3571      3569      3572
      3572      3573      3572      3574      3572      3575      3523      3524
      3524      3526      3524      3525      3526      3527      3526      3528
      3526      3576      3576      3577      3576      3578      3576      3579
      3579      3580      3579      3581      3579      3582      3582      3583
      3582      3584      3582      3585      3585      3586      3585      3587
      3585      3588      3588      3589      3588      3590      3588      3591
      3591      3592      3591      3593      3591      3594      3594      3595
      3594      3596      3594      3597      3597      3598      3597      3599
      3597      3600      3600      3601      3600      3602      3600      3603
      3603      3604      3603      3605      3603      3606      3606      3607
      3606      3608      3606      3609      3609      3610      3609      3611
      3609      3612      3612      3613      3612      3614      3612      3615
      3615      3616      3615      3617      3615      3618      3619      3623
      3619      3627      3619      3631      3623      3624      3623      3625
      3623      3626      3627      3628      3627      3629      3627      3630
      3631      3632      3631      3633      3631      3634      3619      3620
      3620      3621      3620      3622      3620      3635      3635      3636
      3635      3637      3635      3641      3642      3643      3641      3638
      3638      3642      3638      3639      3638      3640      3643      3644
      3643      3645      3643      3646      3646      3647      3646      3654
      3646      3648      3654      3655      3654      3656      3654      3657
      3648      3649      3649      3651      3649      3650      3651      3652
      3651      3653      3651      3663      3663      3664      3663      3665
      3663      3666      3666      3667      3666      3668      3666      3669
      3669      3670      3669      3671      3669      3672      3672      3673
      3672      3674      3672      3675      3675      3676      3675      3677
      3675      3678      3678      3679      3678      3680      3678      3681
      3681      3682      3681      3683      3683      3684      3683      3685
      3685      3686      3685      3687      3685      3688      3688      3689
      3688      3690      3688      3691      3691      3692      3691      3693
      3691      3694      3694      3695      3694      3696      3694      3697
      3697      3698      3697      3699      3697      3700      3700      3701
      3700      3702      3700      3703      3703      3704      3703      3705
      3703      3706      3706      3707      3706      3708      3706      3709
      3657      3658      3658      3660      3658      3659      3660      3661
      3660      3662      3660      3710      3710      3711      3710      3712
      3710      3713      3713      3714      3713      3715      3713      3716
      3716      3717      3716      3718      3716      3719      3719      3720
      3719      3721      3719      3722      3722      3723      3722      3724
      3722      3725      3725      3726      3725      3727      3725      3728
      3728      3729      3728      3730      3728      3731      3731      3732
      3731      3733      3731      3734      3734      3735      3734      3736
      3734      3737      3737      3738      3737      3739      3737      3740
      3740      3741      3740      3742      3740      3743      3743      3744
      3743      3745      3743      3746      3746      3747      3746      3748
      3746      3749      3749      3750      3749      3751      3749      3752
      3753      3757      3753      3761      3753      3765      3757      3758
      3757      3759      3757      3760      3761      3762      3761      3763
      3761      3764      3765      3766      3765      3767      3765      3768
      3753      3754      3754      3755      3754      3756      3754      3769
      3769      3770      3769      3771      3769      3775      3776      3777
      3775      3772      3772      3776      3772      3773      3772      3774
      3777      3778      3777      3779      3777      3780      3780      3781
      3780      3788      3780      3782      3788      3789      3788      3790
      3788      3791      3782      3783      3783      3785      3783      3784
      3785      3786      3785      3787      3785      3797      3797      3798
      3797      3799      3797      3800      3800      3801      3800      3802
      3800      3803      3803      3804      3803      3805      3803      3806
      3806      3807      3806      3808      3806      3809      3809      3810
      3809      3811      3809      3812      3812      3813      3812      3814
      3812      3815      3815      3816      3815      3817      3817      3818
      3817      3819      3819      3820      3819      3821      3819      3822
      3822      3823      3822      3824      3822      3825      3825      3826
      3825      3827      3825      3828      3828      3829      3828      3830
      3828      3831      3831      3832      3831      3833      3831      3834
      3834      3835      3834      3836      3834      3837      3837      3838
      3837      3839      3837      3840      3840      3841      3840      3842
      3840      3843      3791      3792      3792      3794      3792      3793
      3794      3795      3794      3796      3794      3844      3844      3845
      3844      3846      3844      3847      3847      3848      3847      3849
      3847      3850      3850      3851      3850      3852      3850      3853
      3853      3854      3853      3855      3853      3856      3856      3857
      3856      3858      3856      3859      3859      3860      3859      3861
      3859      3862      3862      3863      3862      3864      3862      3865
      3865      3866      3865      3867      3865      3868      3868      3869
      3868      3870      3868      3871      3871      3872      3871      3873
      3871      3874      3874      3875      3874      3876      3874      3877
      3877      3878      3877      3879      3877      3880      3880      3881
      3880      3882      3880      3883      3883      3884      3883      3885
      3883      3886      3887      3891      3887      3895      3887      3899
      3891      3892      3891      3893      3891      3894      3895      3896
      3895      3897      3895      3898      3899      3900      3899      3901
      3899      3902      3887      3888      3888      3889      3888      3890
      3888      3903      3903      3904      3903      3905      3903      3909
      3910      3911      3909      3906      3906      3910      3906      3907
      3906      3908      3911      3912      3911      3913      3911      3914
      3914      3915      3914      3922      3914      3916      3922      3923
      3922      3924      3922      3925      3916      3917      3917      3919
      3917      3918      3919      3920      3919      3921      3919      3931
      3931      3932      3931      3933      3931      3934      3934      3935
      3934      3936      3934      3937      3937      3938      3937      3939
      3937      3940      3940      3941      3940      3942      3940      3943
      3943      3944      3943      3945      3943      3946      3946      3947
      3946      3948      3946      3949      3949      3950      3949      3951
      3951      3952      3951      3953      3953      3954      3953      3955
      3953      3956      3956      3957      3956      3958      3956      3959
      3959      3960      3959      3961      3959      3962      3962      3963
      3962      3964      3962      3965      3965      3966      3965      3967
      3965      3968      3968      3969      3968      3970      3968      3971
      3971      3972      3971      3973      3971      3974      3974      3975
      3974      3976      3974      3977      3925      3926      3926      3928
      3926      3927      3928      3929      3928      3930      3928      3978
      3978      3979      3978      3980      3978      3981      3981      3982
      3981      3983      3981      3984      3984      3985      3984      3986
      3984      3987      3987      3988      3987      3989      3987      3990
      3990      3991      3990      3992      3990      3993      3993      3994
      3993      3995      3993      3996      3996      3997      3996      3998
      3996      3999      3999      4000      3999      4001      3999      4002
      4002      4003      4002      4004      4002      4005      4005      4006
      4005      4007      4005      4008      4008      4009      4008      4010
      4008      4011      4011      4012      4011      4013      4011      4014
      4014      4015      4014      4016      4014      4017      4017      4018
      4017      4019      4017      4020      4021      4025      4021      4029
      4021      4033      4025      4026      4025      4027      4025      4028
      4029      4030      4029      4031      4029      4032      4033      4034
      4033      4035      4033      4036      4021      4022      4022      4023
      4022      4024      4022      4037      4037      4038      4037      4039
      4037      4043      4044      4045      4043      4040      4040      4044
      4040      4041      4040      4042      4045      4046      4045      4047
      4045      4048      4048      4049      4048      4056      4048      4050
      4056      4057      4056      4058      4056      4059      4050      4051
      4051      4053      4051      4052      4053      4054      4053      4055
      4053      4065      4065      4066      4065      4067      4065      4068
      4068      4069      4068      4070      4068      4071      4071      4072
      4071      4073      4071      4074      4074      4075      4074      4076
      4074      4077      4077      4078      4077      4079      4077      4080
      4080      4081      4080      4082      4080      4083      4083      4084
      4083      4085      4085      4086      4085      4087      4087      4088
      4087      4089      4087      4090      4090      4091      4090      4092
      4090      4093      4093      4094      4093      4095      4093      4096
      4096      4097      4096      4098      4096      4099      4099      4100
      4099      4101      4099      4102      4102      4103      4102      4104
      4102      4105      4105      4106      4105      4107      4105      4108
      4108      4109      4108      4110      4108      4111      4059      4060
      4060      4062      4060      4061      4062      4063      4062      4064
      4062      4112      4112      4113      4112      4114      4112      4115
      4115      4116      4115      4117      4115      4118      4118      4119
      4118      4120      4118      4121      4121      4122      4121      4123
      4121      4124      4124      4125      4124      4126      4124      4127
      4127      4128      4127      4129      4127      4130      4130      4131
      4130      4132      4130      4133      4133      4134      4133      4135
      4133      4136      4136      4137      4136      4138      4136      4139
      4139      4140      4139      4141      4139      4142      4142      4143
      4142      4144      4142      4145      4145      4146      4145      4147
      4145      4148      4148      4149      4148      4150      4148      4151
      4151      4152      4151      4153      4151      4154      4155      4159
      4155      4163      4155      4167      4159      4160      4159      4161
      4159      4162      4163      4164      4163      4165      4163      4166
      4167      4168      4167      4169      4167      4170      4155      4156
      4156      4157      4156      4158      4156      4171      4171      4172
      4171      4173      4171      4177      4178      4179      4177      4174
      4174      4178      4174      4175      4174      4176      4179      4180
      4179      4181      4179      4182      4182      4183      4182      4190
      4182      4184      4190      4191      4190      4192      4190      4193
      4184      4185      4185      4187      4185      4186      4187      4188
      4187      4189      4187      4199      4199      4200      4199      4201
      4199      4202      4202      4203      4202      4204      4202      4205
      4205      4206      4205      4207      4205      4208      4208      4209
      4208      4210      4208      4211      4211      4212      4211      4213
      4211      4214      4214      4215      4214      4216      4214      4217
      4217      4218      4217      4219      4219      4220      4219      4221
      4221      4222      4221      4223      4221      4224      4224      4225
      4224      4226      4224      4227      4227      4228      4227      4229
      4227      4230      4230      4231      4230      4232      4230      4233
      4233      4234      4233      4235      4233      4236      4236      4237
      4236      4238      4236      4239      4239      4240      4239      4241
      4239      4242      4242      4243      4242      4244      4242      4245
      4193      4194      4194      4196      4194      4195      4196      4197
      4196      4198      4196      4246      4246      4247      4246      4248
      4246      4249      4249      4250      4249      4251      4249      4252
      4252      4253      4252      4254      4252      4255      4255      4256
      4255      4257      4255      4258      4258      4259      4258      4260
      4258      4261      4261      4262      4261      4263      4261      4264
      4264      4265      4264      4266      4264      4267      4267      4268
      4267      4269      4267      4270      4270      4271      4270      4272
      4270      4273      4273      4274      4273      4275      4273      4276
      4276      4277      4276      4278      4276      4279      4279      4280
      4279      4281      4279      4282      4282      4283      4282      4284
      4282      4285      4285      4286      4285      4287      4285      4288
      4289      4293      4289      4297      4289      4301      4293      4294
      4293      4295      4293      4296      4297      4298      4297      4299
      4297      4300      4301      4302      4301      4303      4301      4304
      4289      4290      4290      4291      4290      4292      4290      4305
      4305      4306      4305      4307      4305      4311      4312      4313
      4311      4308      4308      4312      4308      4309      4308      4310
      4313      4314      4313      4315      4313      4316      4316      4317
      4316      4324      4316      4318      4324      4325      4324      4326
      4324      4327      4318      4319      4319      4321      4319      4320
      4321      4322      4321      4323      4321      4333      4333      4334
      4333      4335      4333      4336      4336      4337      4336      4338
      4336      4339      4339      4340      4339      4341      4339      4342
      4342      4343      4342      4344      4342      4345      4345      4346
      4345      4347      4345      4348      4348      4349      4348      4350
      4348      4351      4351      4352      4351      4353      4353      4354
      4353      4355      4355      4356      4355      4357      4355      4358
      4358      4359      4358      4360      4358      4361      4361      4362
      4361      4363      4361      4364      4364      4365      4364      4366
      4364      4367      4367      4368      4367      4369      4367      4370
      4370      4371      4370      4372      4370      4373      4373      4374
      4373      4375      4373      4376      4376      4377      4376      4378
      4376      4379      4327      4328      4328      4330      4328      4329
      4330      4331      4330      4332      4330      4380      4380      4381
      4380      4382      4380      4383      4383      4384      4383      4385
      4383      4386      4386      4387      4386      4388      4386      4389
      4389      4390      4389      4391      4389      4392      4392      4393
      4392      4394      4392      4395      4395      4396      4395      4397
      4395      4398      4398      4399      4398      4400      4398      4401
      4401      4402      4401      4403      4401      4404      4404      4405
      4404      4406      4404      4407      4407      4408      4407      4409
      4407      4410      4410      4411      4410      4412      4410      4413
      4413      4414      4413      4415      4413      4416      4416      4417
      4416      4418      4416      4419      4419      4420      4419      4421
      4419      4422      4423      4427      4423      4431      4423      4435
      4427      4428      4427      4429      4427      4430      4431      4432
      4431      4433      4431      4434      4435      4436      4435      4437
      4435      4438      4423      4424      4424      4425      4424      4426
      4424      4439      4439      4440      4439      4441      4439      4445
      4446      4447      4445      4442      4442      4446      4442      4443
      4442      4444      4447      4448      4447      4449      4447      4450
      4450      4451      4450      4458      4450      4452      4458      4459
      4458      4460      4458      4461      4452      4453      4453      4455
      4453      4454      4455      4456      4455      4457      4455      4467
      4467      4468      4467      4469      4467      4470      4470      4471
      4470      4472      4470      4473      4473      4474      4473      4475
      4473      4476      4476      4477      4476      4478      4476      4479
      4479      4480      4479      4481      4479      4482      4482      4483
      4482      4484      4482      4485      4485      4486      4485      4487
      4487      4488      4487      4489      4489      4490      4489      4491
      4489      4492      4492      4493      4492      4494      4492      4495
      4495      4496      4495      4497      4495      4498      4498      4499
      4498      4500      4498      4501      4501      4502      4501      4503
      4501      4504      4504      4505      4504      4506      4504      4507
      4507      4508      4507      4509      4507      4510      4510      4511
      4510      4512      4510      4513      4461      4462      4462      4464
      4462      4463      4464      4465      4464      4466      4464      4514
      4514      4515      4514      4516      4514      4517      4517      4518
      4517      4519      4517      4520      4520      4521      4520      4522
      4520      4523      4523      4524      4523      4525      4523      4526
      4526      4527      4526      4528      4526      4529      4529      4530
      4529      4531      4529      4532      4532      4533      4532      4534
      4532      4535      4535      4536      4535      4537      4535      4538
      4538      4539      4538      4540      4538      4541      4541      4542
      4541      4543      4541      4544      4544      4545      4544      4546
      4544      4547      4547      4548      4547      4549      4547      4550
      4550      4551      4550      4552      4550      4553      4553      4554
      4553      4555      4553      4556      4557      4561      4557      4565
      4557      4569      4561      4562      4561      4563      4561      4564
      4565      4566      4565      4567      4565      4568      4569      4570
      4569      4571      4569      4572      4557      4558      4558      4559
      4558      4560      4558      4573      4573      4574      4573      4575
      4573      4579      4580      4581      4579      4576      4576      4580
      4576      4577      4576      4578      4581      4582      4581      4583
      4581      4584      4584      4585      4584      4592      4584      4586
      4592      4593      4592      4594      4592      4595      4586      4587
      4587      4589      4587      4588      4589      4590      4589      4591
      4589      4601      4601      4602      4601      4603      4601      4604
      4604      4605      4604      4606      4604      4607      4607      4608
      4607      4609      4607      4610      4610      4611      4610      4612
      4610      4613      4613      4614      4613      4615      4613      4616
      4616      4617      4616      4618      4616      4619      4619      4620
      4619      4621      4621      4622      4621      4623      4623      4624
      4623      4625      4623      4626      4626      4627      4626      4628
      4626      4629      4629      4630      4629      4631      4629      4632
      4632      4633      4632      4634      4632      4635      4635      4636
      4635      4637      4635      4638      4638      4639      4638      4640
      4638      4641      4641      4642      4641      4643      4641      4644
      4644      4645      4644      4646      4644      4647      4595      4596
      4596      4598      4596      4597      4598      4599      4598      4600
      4598      4648      4648      4649      4648      4650      4648      4651
      4651      4652      4651      4653      4651      4654      4654      4655
      4654      4656      4654      4657      4657      4658      4657      4659
      4657      4660      4660      4661      4660      4662      4660      4663
      4663      4664      4663      4665      4663      4666      4666      4667
      4666      4668      4666      4669      4669      4670      4669      4671
      4669      4672      4672      4673      4672      4674      4672      4675
      4675      4676      4675      4677      4675      4678      4678      4679
      4678      4680      4678      4681      4681      4682      4681      4683
      4681      4684      4684      4685      4684      4686      4684      4687
      4687      4688      4687      4689      4687      4690      4691      4695
      4691      4699      4691      4703      4695      4696      4695      4697
      4695      4698      4699      4700      4699      4701      4699      4702
      4703      4704      4703      4705      4703      4706      4691      4692
      4692      4693      4692      4694      4692      4707      4707      4708
      4707      4709      4707      4713      4714      4715      4713      4710
      4710      4714      4710      4711      4710      4712      4715      4716
      4715      4717      4715      4718      4718      4719      4718      4726
      4718      4720      4726      4727      4726      4728      4726      4729
      4720      4721      4721      4723      4721      4722      4723      4724
      4723      4725      4723      4735      4735      4736      4735      4737
      4735      4738      4738      4739      4738      4740      4738      4741
      4741      4742      4741      4743      4741      4744      4744      4745
      4744      4746      4744      4747      4747      4748      4747      4749
      4747      4750      4750      4751      4750      4752      4750      4753
      4753      4754      4753      4755      4755      4756      4755      4757
      4757      4758      4757      4759      4757      4760      4760      4761
      4760      4762      4760      4763      4763      4764      4763      4765
      4763      4766      4766      4767      4766      4768      4766      4769
      4769      4770      4769      4771      4769      4772      4772      4773
      4772      4774      4772      4775      4775      4776      4775      4777
      4775      4778      4778      4779      4778      4780      4778      4781
      4729      4730      4730      4732      4730      4731      4732      4733
      4732      4734      4732      4782      4782      4783      4782      4784
      4782      4785      4785      4786      4785      4787      4785      4788
      4788      4789      4788      4790      4788      4791      4791      4792
      4791      4793      4791      4794      4794      4795      4794      4796
      4794      4797      4797      4798      4797      4799      4797      4800
      4800      4801      4800      4802      4800      4803      4803      4804
      4803      4805      4803      4806      4806      4807      4806      4808
      4806      4809      4809      4810      4809      4811      4809      4812
      4812      4813      4812      4814      4812      4815      4815      4816
      4815      4817      4815      4818      4818      4819      4818      4820
      4818      4821      4821      4822      4821      4823      4821      4824
      4825      4829      4825      4833      4825      4837      4829      4830
      4829      4831      4829      4832      4833      4834      4833      4835
      4833      4836      4837      4838      4837      4839      4837      4840
      4825      4826      4826      4827      4826      4828      4826      4841
      4841      4842      4841      4843      4841      4847      4848      4849
      4847      4844      4844      4848      4844      4845      4844      4846
      4849      4850      4849      4851      4849      4852      4852      4853
      4852      4860      4852      4854      4860      4861      4860      4862
      4860      4863      4854      4855      4855      4857      4855      4856
      4857      4858      4857      4859      4857      4869      4869      4870
      4869      4871      4869      4872      4872      4873      4872      4874
      4872      4875      4875      4876      4875      4877      4875      4878
      4878      4879      4878      4880      4878      4881      4881      4882
      4881      4883      4881      4884      4884      4885      4884      4886
      4884      4887      4887      4888      4887      4889      4889      4890
      4889      4891      4891      4892      4891      4893      4891      4894
      4894      4895      4894      4896      4894      4897      4897      4898
      4897      4899      4897      4900      4900      4901      4900      4902
      4900      4903      4903      4904      4903      4905      4903      4906
      4906      4907      4906      4908      4906      4909      4909      4910
      4909      4911      4909      4912      4912      4913      4912      4914
      4912      4915      4863      4864      4864      4866      4864      4865
      4866      4867      4866      4868      4866      4916      4916      4917
      4916      4918      4916      4919      4919      4920      4919      4921
      4919      4922      4922      4923      4922      4924      4922      4925
      4925      4926      4925      4927      4925      4928      4928      4929
      4928      4930      4928      4931      4931      4932      4931      4933
      4931      4934      4934      4935      4934      4936      4934      4937
      4937      4938      4937      4939      4937      4940      4940      4941
      4940      4942      4940      4943      4943      4944      4943      4945
      4943      4946      4946      4947      4946      4948      4946      4949
      4949      4950      4949      4951      4949      4952      4952      4953
      4952      4954      4952      4955      4955      4956      4955      4957
      4955      4958      4959      4963      4959      4967      4959      4971
      4963      4964      4963      4965      4963      4966      4967      4968
      4967      4969      4967      4970      4971      4972      4971      4973
      4971      4974      4959      4960      4960      4961      4960      4962
      4960      4975      4975      4976      4975      4977      4975      4981
      4982      4983      4981      4978      4978      4982      4978      4979
      4978      4980      4983      4984      4983      4985      4983      4986
      4986      4987      4986      4994      4986      4988      4994      4995
      4994      4996      4994      4997      4988      4989      4989      4991
      4989      4990      4991      4992      4991      4993      4991      5003
      5003      5004      5003      5005      5003      5006      5006      5007
      5006      5008      5006      5009      5009      5010      5009      5011
      5009      5012      5012      5013      5012      5014      5012      5015
      5015      5016      5015      5017      5015      5018      5018      5019
      5018      5020      5018      5021      5021      5022      5021      5023
      5023      5024      5023      5025      5025      5026      5025      5027
      5025      5028      5028      5029      5028      5030      5028      5031
      5031      5032      5031      5033      5031      5034      5034      5035
      5034      5036      5034      5037      5037      5038      5037      5039
      5037      5040      5040      5041      5040      5042      5040      5043
      5043      5044      5043      5045      5043      5046      5046      5047
      5046      5048      5046      5049      4997      4998      4998      5000
      4998      4999      5000      5001      5000      5002      5000      5050
      5050      5051      5050      5052      5050      5053      5053      5054
      5053      5055      5053      5056      5056      5057      5056      5058
      5056      5059      5059      5060      5059      5061      5059      5062
      5062      5063      5062      5064      5062      5065      5065      5066
      5065      5067      5065      5068      5068      5069      5068      5070
      5068      5071      5071      5072      5071      5073      5071      5074
      5074      5075      5074      5076      5074      5077      5077      5078
      5077      5079      5077      5080      5080      5081      5080      5082
      5080      5083      5083      5084      5083      5085      5083      5086
      5086      5087      5086      5088      5086      5089      5089      5090
      5089      5091      5089      5092      5093      5097      5093      5101
      5093      5105      5097      5098      5097      5099      5097      5100
      5101      5102      5101      5103      5101      5104      5105      5106
      5105      5107      5105      5108      5093      5094      5094      5095
      5094      5096      5094      5109      5109      5110      5109      5111
      5109      5115      5116      5117      5115      5112      5112      5116
      5112      5113      5112      5114      5117      5118      5117      5119
      5117      5120      5120      5121      5120      5128      5120      5122
      5128      5129      5128      5130      5128      5131      5122      5123
      5123      5125      5123      5124      5125      5126      5125      5127
      5125      5137      5137      5138      5137      5139      5137      5140
      5140      5141      5140      5142      5140      5143      5143      5144
      5143      5145      5143      5146      5146      5147      5146      5148
      5146      5149      5149      5150      5149      5151      5149      5152
      5152      5153      5152      5154      5152      5155      5155      5156
      5155      5157      5157      5158      5157      5159      5159      5160
      5159      5161      5159      5162      5162      5163      5162      5164
      5162      5165      5165      5166      5165      5167      5165      5168
      5168      5169      5168      5170      5168      5171      5171      5172
      5171      5173      5171      5174      5174      5175      5174      5176
      5174      5177      5177      5178      5177      5179      5177      5180
      5180      5181      5180      5182      5180      5183      5131      5132
      5132      5134      5132      5133      5134      5135      5134      5136
      5134      5184      5184      5185      5184      5186      5184      5187
      5187      5188      5187      5189      5187      5190      5190      5191
      5190      5192      5190      5193      5193      5194      5193      5195
      5193      5196      5196      5197      5196      5198      5196      5199
      5199      5200      5199      5201      5199      5202      5202      5203
      5202      5204      5202      5205      5205      5206      5205      5207
      5205      5208      5208      5209      5208      5210      5208      5211
      5211      5212      5211      5213      5211      5214      5214      5215
      5214      5216      5214      5217      5217      5218      5217      5219
      5217      5220      5220      5221      5220      5222      5220      5223
      5223      5224      5223      5225      5223      5226      5227      5231
      5227      5235      5227      5239      5231      5232      5231      5233
      5231      5234      5235      5236      5235      5237      5235      5238
      5239      5240      5239      5241      5239      5242      5227      5228
      5228      5229      5228      5230      5228      5243      5243      5244
      5243      5245      5243      5249      5250      5251      5249      5246
      5246      5250      5246      5247      5246      5248      5251      5252
      5251      5253      5251      5254      5254      5255      5254      5262
      5254      5256      5262      5263      5262      5264      5262      5265
      5256      5257      5257      5259      5257      5258      5259      5260
      5259      5261      5259      5271      5271      5272      5271      5273
      5271      5274      5274      5275      5274      5276      5274      5277
      5277      5278      5277      5279      5277      5280      5280      5281
      5280      5282      5280      5283      5283      5284      5283      5285
      5283      5286      5286      5287      5286      5288      5286      5289
      5289      5290      5289      5291      5291      5292      5291      5293
      5293      5294      5293      5295      5293      5296      5296      5297
      5296      5298      5296      5299      5299      5300      5299      5301
      5299      5302      5302      5303      5302      5304      5302      5305
      5305      5306      5305      5307      5305      5308      5308      5309
      5308      5310      5308      5311      5311      5312      5311      5313
      5311      5314      5314      5315      5314      5316      5314      5317
      5265      5266      5266      5268      5266      5267      5268      5269
      5268      5270      5268      5318      5318      5319      5318      5320
      5318      5321      5321      5322      5321      5323      5321      5324
      5324      5325      5324      5326      5324      5327      5327      5328
      5327      5329      5327      5330      5330      5331      5330      5332
      5330      5333      5333      5334      5333      5335      5333      5336
      5336      5337      5336      5338      5336      5339      5339      5340
      5339      5341      5339      5342      5342      5343      5342      5344
      5342      5345      5345      5346      5345      5347      5345      5348
      5348      5349      5348      5350      5348      5351      5351      5352
      5351      5353      5351      5354      5354      5355      5354      5356
      5354      5357      5357      5358      5357      5359      5357      5360
      5361      5365      5361      5369      5361      5373      5365      5366
      5365      5367      5365      5368      5369      5370      5369      5371
      5369      5372      5373      5374      5373      5375      5373      5376
      5361      5362      5362      5363      5362      5364      5362      5377
      5377      5378      5377      5379      5377      5383      5384      5385
      5383      5380      5380      5384      5380      5381      5380      5382
      5385      5386      5385      5387      5385      5388      5388      5389
      5388      5396      5388      5390      5396      5397      5396      5398
      5396      5399      5390      5391      5391      5393      5391      5392
      5393      5394      5393      5395      5393      5405      5405      5406
      5405      5407      5405      5408      5408      5409      5408      5410
      5408      5411      5411      5412      5411      5413      5411      5414
      5414      5415      5414      5416      5414      5417      5417      5418
      5417      5419      5417      5420      5420      5421      5420      5422
      5420      5423      5423      5424      5423      5425      5425      5426
      5425      5427      5427      5428      5427      5429      5427      5430
      5430      5431      5430      5432      5430      5433      5433      5434
      5433      5435      5433      5436      5436      5437      5436      5438
      5436      5439      5439      5440      5439      5441      5439      5442
      5442      5443      5442      5444      5442      5445      5445      5446
      5445      5447      5445      5448      5448      5449      5448      5450
      5448      5451      5399      5400      5400      5402      5400      5401
      5402      5403      5402      5404      5402      5452      5452      5453
      5452      5454      5452      5455      5455      5456      5455      5457
      5455      5458      5458      5459      5458      5460      5458      5461
      5461      5462      5461      5463      5461      5464      5464      5465
      5464      5466      5464      5467      5467      5468      5467      5469
      5467      5470      5470      5471      5470      5472      5470      5473
      5473      5474      5473      5475      5473      5476      5476      5477
      5476      5478      5476      5479      5479      5480      5479      5481
      5479      5482      5482      5483      5482      5484      5482      5485
      5485      5486      5485      5487      5485      5488      5488      5489
      5488      5490      5488      5491      5491      5492      5491      5493
      5491      5494      5495      5499      5495      5503      5495      5507
      5499      5500      5499      5501      5499      5502      5503      5504
      5503      5505      5503      5506      5507      5508      5507      5509
      5507      5510      5495      5496      5496      5497      5496      5498
      5496      5511      5511      5512      5511      5513      5511      5517
      5518      5519      5517      5514      5514      5518      5514      5515
      5514      5516      5519      5520      5519      5521      5519      5522
      5522      5523      5522      5530      5522      5524      5530      5531
      5530      5532      5530      5533      5524      5525      5525      5527
      5525      5526      5527      5528      5527      5529      5527      5539
      5539      5540      5539      5541      5539      5542      5542      5543
      5542      5544      5542      5545      5545      5546      5545      5547
      5545      5548      5548      5549      5548      5550      5548      5551
      5551      5552      5551      5553      5551      5554      5554      5555
      5554      5556      5554      5557      5557      5558      5557      5559
      5559      5560      5559      5561      5561      5562      5561      5563
      5561      5564      5564      5565      5564      5566      5564      5567
      5567      5568      5567      5569      5567      5570      5570      5571
      5570      5572      5570      5573      5573      5574      5573      5575
      5573      5576      5576      5577      5576      5578      5576      5579
      5579      5580      5579      5581      5579      5582      5582      5583
      5582      5584      5582      5585      5533      5534      5534      5536
      5534      5535      5536      5537      5536      5538      5536      5586
      5586      5587      5586      5588      5586      5589      5589      5590
      5589      5591      5589      5592      5592      5593      5592      5594
      5592      5595      5595      5596      5595      5597      5595      5598
      5598      5599      5598      5600      5598      5601      5601      5602
      5601      5603      5601      5604      5604      5605      5604      5606
      5604      5607      5607      5608      5607      5609      5607      5610
      5610      5611      5610      5612      5610      5613      5613      5614
      5613      5615      5613      5616      5616      5617      5616      5618
      5616      5619      5619      5620      5619      5621      5619      5622
      5622      5623      5622      5624      5622      5625      5625      5626
      5625      5627      5625      5628      5629      5633      5629      5637
      5629      5641      5633      5634      5633      5635      5633      5636
      5637      5638      5637      5639      5637      5640      5641      5642
      5641      5643      5641      5644      5629      5630      5630      5631
      5630      5632      5630      5645      5645      5646      5645      5647
      5645      5651      5652      5653      5651      5648      5648      5652
      5648      5649      5648      5650      5653      5654      5653      5655
      5653      5656      5656      5657      5656      5664      5656      5658
      5664      5665      5664      5666      5664      5667      5658      5659
      5659      5661      5659      5660      5661      5662      5661      5663
      5661      5673      5673      5674      5673      5675      5673      5676
      5676      5677      5676      5678      5676      5679      5679      5680
      5679      5681      5679      5682      5682      5683      5682      5684
      5682      5685      5685      5686      5685      5687      5685      5688
      5688      5689      5688      5690      5688      5691      5691      5692
      5691      5693      5693      5694      5693      5695      5695      5696
      5695      5697      5695      5698      5698      5699      5698      5700
      5698      5701      5701      5702      5701      5703      5701      5704
      5704      5705      5704      5706      5704      5707      5707      5708
      5707      5709      5707      5710      5710      5711      5710      5712
      5710      5713      5713      5714      5713      5715      5713      5716
      5716      5717      5716      5718      5716      5719      5667      5668
      5668      5670      5668      5669      5670      5671      5670      5672
      5670      5720      5720      5721      5720      5722      5720      5723
      5723      5724      5723      5725      5723      5726      5726      5727
      5726      5728      5726      5729      5729      5730      5729      5731
      5729      5732      5732      5733      5732      5734      5732      5735
      5735      5736      5735      5737      5735      5738      5738      5739
      5738      5740      5738      5741      5741      5742      5741      5743
      5741      5744      5744      5745      5744      5746      5744      5747
      5747      5748      5747      5749      5747      5750      5750      5751
      5750      5752      5750      5753      5753      5754      5753      5755
      5753      5756      5756      5757      5756      5758      5756      5759
      5759      5760      5759      5761      5759      5762      5763      5767
      5763      5771      5763      5775      5767      5768      5767      5769
      5767      5770      5771      5772      5771      5773      5771      5774
      5775      5776      5775      5777      5775      5778      5763      5764
      5764      5765      5764      5766      5764      5779      5779      5780
      5779      5781      5779      5785      5786      5787      5785      5782
      5782      5786      5782      5783      5782      5784      5787      5788
      5787      5789      5787      5790      5790      5791      5790      5798
      5790      5792      5798      5799      5798      5800      5798      5801
      5792      5793      5793      5795      5793      5794      5795      5796
      5795      5797      5795      5807      5807      5808      5807      5809
      5807      5810      5810      5811      5810      5812      5810      5813
      5813      5814      5813      5815      5813      5816      5816      5817
      5816      5818      5816      5819      5819      5820      5819      5821
      5819      5822      5822      5823      5822      5824      5822      5825
      5825      5826      5825      5827      5827      5828      5827      5829
      5829      5830      5829      5831      5829      5832      5832      5833
      5832      5834      5832      5835      5835      5836      5835      5837
      5835      5838      5838      5839      5838      5840      5838      5841
      5841      5842      5841      5843      5841      5844      5844      5845
      5844      5846      5844      5847      5847      5848      5847      5849
      5847      5850      5850      5851      5850      5852      5850      5853
      5801      5802      5802      5804      5802      5803      5804      5805
      5804      5806      5804      5854      5854      5855      5854      5856
      5854      5857      5857      5858      5857      5859      5857      5860
      5860      5861      5860      5862      5860      5863      5863      5864
      5863      5865      5863      5866      5866      5867      5866      5868
      5866      5869      5869      5870      5869      5871      5869      5872
      5872      5873      5872      5874      5872      5875      5875      5876
      5875      5877      5875      5878      5878      5879      5878      5880
      5878      5881      5881      5882      5881      5883      5881      5884
      5884      5885      5884      5886      5884      5887      5887      5888
      5887      5889      5887      5890      5890      5891      5890      5892
      5890      5893      5893      5894      5893      5895      5893      5896
      5897      5901      5897      5905      5897      5909      5901      5902
      5901      5903      5901      5904      5905      5906      5905      5907
      5905      5908      5909      5910      5909      5911      5909      5912
      5897      5898      5898      5899      5898      5900      5898      5913
      5913      5914      5913      5915      5913      5919      5920      5921
      5919      5916      5916      5920      5916      5917      5916      5918
      5921      5922      5921      5923      5921      5924      5924      5925
      5924      5932      5924      5926      5932      5933      5932      5934
      5932      5935      5926      5927      5927      5929      5927      5928
      5929      5930      5929      5931      5929      5941      5941      5942
      5941      5943      5941      5944      5944      5945      5944      5946
      5944      5947      5947      5948      5947      5949      5947      5950
      5950      5951      5950      5952      5950      5953      5953      5954
      5953      5955      5953      5956      5956      5957      5956      5958
      5956      5959      5959      5960      5959      5961      5961      5962
      5961      5963      5963      5964      5963      5965      5963      5966
      5966      5967      5966      5968      5966      5969      5969      5970
      5969      5971      5969      5972      5972      5973      5972      5974
      5972      5975      5975      5976      5975      5977      5975      5978
      5978      5979      5978      5980      5978      5981      5981      5982
      5981      5983      5981      5984      5984      5985      5984      5986
      5984      5987      5935      5936      5936      5938      5936      5937
      5938      5939      5938      5940      5938      5988      5988      5989
      5988      5990      5988      5991      5991      5992      5991      5993
      5991      5994      5994      5995      5994      5996      5994      5997
      5997      5998      5997      5999      5997      6000      6000      6001
      6000      6002      6000      6003      6003      6004      6003      6005
      6003      6006      6006      6007      6006      6008      6006      6009
      6009      6010      6009      6011      6009      6012      6012      6013
      6012      6014      6012      6015      6015      6016      6015      6017
      6015      6018      6018      6019      6018      6020      6018      6021
      6021      6022      6021      6023      6021      6024      6024      6025
      6024      6026      6024      6027      6027      6028      6027      6029
      6027      6030      6031      6035      6031      6039      6031      6043
      6035      6036      6035      6037      6035      6038      6039      6040
      6039      6041      6039      6042      6043      6044      6043      6045
      6043      6046      6031      6032      6032      6033      6032      6034
      6032      6047      6047      6048      6047      6049      6047      6053
      6054      6055      6053      6050      6050      6054      6050      6051
      6050      6052      6055      6056      6055      6057      6055      6058
      6058      6059      6058      6066      6058      6060      6066      6067
      6066      6068      6066      6069      6060      6061      6061      6063
      6061      6062      6063      6064      6063      6065      6063      6075
      6075      6076      6075      6077      6075      6078      6078      6079
      6078      6080      6078      6081      6081      6082      6081      6083
      6081      6084      6084      6085      6084      6086      6084      6087
      6087      6088      6087      6089      6087      6090      6090      6091
      6090      6092      6090      6093      6093      6094      6093      6095
      6095      6096      6095      6097      6097      6098      6097      6099
      6097      6100      6100      6101      6100      6102      6100      6103
      6103      6104      6103      6105      6103      6106      6106      6107
      6106      6108      6106      6109      6109      6110      6109      6111
      6109      6112      6112      6113      6112      6114      6112      6115
      6115      6116      6115      6117      6115      6118      6118      6119
      6118      6120      6118      6121      6069      6070      6070      6072
      6070      6071      6072      6073      6072      6074      6072      6122
      6122      6123      6122      6124      6122      6125      6125      6126
      6125      6127      6125      6128      6128      6129      6128      6130
      6128      6131      6131      6132      6131      6133      6131      6134
      6134      6135      6134      6136      6134      6137      6137      6138
      6137      6139      6137      6140      6140      6141      6140      6142
      6140      6143      6143      6144      6143      6145      6143      6146
      6146      6147      6146      6148      6146      6149      6149      6150
      6149      6151      6149      6152      6152      6153      6152      6154
      6152      6155      6155      6156      6155      6157      6155      6158
      6158      6159      6158      6160      6158      6161      6161      6162
      6161      6163      6161      6164      6165      6169      6165      6173
      6165      6177      6169      6170      6169      6171      6169      6172
      6173      6174      6173      6175      6173      6176      6177      6178
      6177      6179      6177      6180      6165      6166      6166      6167
      6166      6168      6166      6181      6181      6182      6181      6183
      6181      6187      6188      6189      6187      6184      6184      6188
      6184      6185      6184      6186      6189      6190      6189      6191
      6189      6192      6192      6193      6192      6200      6192      6194
      6200      6201      6200      6202      6200      6203      6194      6195
      6195      6197      6195      6196      6197      6198      6197      6199
      6197      6209      6209      6210      6209      6211      6209      6212
      6212      6213      6212      6214      6212      6215      6215      6216
      6215      6217      6215      6218      6218      6219      6218      6220
      6218      6221      6221      6222      6221      6223      6221      6224
      6224      6225      6224      6226      6224      6227      6227      6228
      6227      6229      6229      6230      6229      6231      6231      6232
      6231      6233      6231      6234      6234      6235      6234      6236
      6234      6237      6237      6238      6237      6239      6237      6240
      6240      6241      6240      6242      6240      6243      6243      6244
      6243      6245      6243      6246      6246      6247      6246      6248
      6246      6249      6249      6250      6249      6251      6249      6252
      6252      6253      6252      6254      6252      6255      6203      6204
      6204      6206      6204      6205      6206      6207      6206      6208
      6206      6256      6256      6257      6256      6258      6256      6259
      6259      6260      6259      6261      6259      6262      6262      6263
      6262      6264      6262      6265      6265      6266      6265      6267
      6265      6268      6268      6269      6268      6270      6268      6271
      6271      6272      6271      6273      6271      6274      6274      6275
      6274      6276      6274      6277      6277      6278      6277      6279
      6277      6280      6280      6281      6280      6282      6280      6283
      6283      6284      6283      6285      6283      6286      6286      6287
      6286      6288      6286      6289      6289      6290      6289      6291
      6289      6292      6292      6293      6292      6294      6292      6295
      6295      6296      6295      6297      6295      6298      6299      6303
      6299      6307      6299      6311      6303      6304      6303      6305
      6303      6306      6307      6308      6307      6309      6307      6310
      6311      6312      6311      6313      6311      6314      6299      6300
      6300      6301      6300      6302      6300      6315      6315      6316
      6315      6317      6315      6321      6322      6323      6321      6318
      6318      6322      6318      6319      6318      6320      6323      6324
      6323      6325      6323      6326      6326      6327      6326      6334
      6326      6328      6334      6335      6334      6336      6334      6337
      6328      6329      6329      6331      6329      6330      6331      6332
      6331      6333      6331      6343      6343      6344      6343      6345
      6343      6346      6346      6347      6346      6348      6346      6349
      6349      6350      6349      6351      6349      6352      6352      6353
      6352      6354      6352      6355      6355      6356      6355      6357
      6355      6358      6358      6359      6358      6360      6358      6361
      6361      6362      6361      6363      6363      6364      6363      6365
      6365      6366      6365      6367      6365      6368      6368      6369
      6368      6370      6368      6371      6371      6372      6371      6373
      6371      6374      6374      6375      6374      6376      6374      6377
      6377      6378      6377      6379      6377      6380      6380      6381
      6380      6382      6380      6383      6383      6384      6383      6385
      6383      6386      6386      6387      6386      6388      6386      6389
      6337      6338      6338      6340      6338      6339      6340      6341
      6340      6342      6340      6390      6390      6391      6390      6392
      6390      6393      6393      6394      6393      6395      6393      6396
      6396      6397      6396      6398      6396      6399      6399      6400
      6399      6401      6399      6402      6402      6403      6402      6404
      6402      6405      6405      6406      6405      6407      6405      6408
      6408      6409      6408      6410      6408      6411      6411      6412
      6411      6413      6411      6414      6414      6415      6414      6416
      6414      6417      6417      6418      6417      6419      6417      6420
      6420      6421      6420      6422      6420      6423      6423      6424
      6423      6425      6423      6426      6426      6427      6426      6428
      6426      6429      6429      6430      6429      6431      6429      6432
      6433      6437      6433      6441      6433      6445      6437      6438
      6437      6439      6437      6440      6441      6442      6441      6443
      6441      6444      6445      6446      6445      6447      6445      6448
      6433      6434      6434      6435      6434      6436      6434      6449
      6449      6450      6449      6451      6449      6455      6456      6457
      6455      6452      6452      6456      6452      6453      6452      6454
      6457      6458      6457      6459      6457      6460      6460      6461
      6460      6468      6460      6462      6468      6469      6468      6470
      6468      6471      6462      6463      6463      6465      6463      6464
      6465      6466      6465      6467      6465      6477      6477      6478
      6477      6479      6477      6480      6480      6481      6480      6482
      6480      6483      6483      6484      6483      6485      6483      6486
      6486      6487      6486      6488      6486      6489      6489      6490
      6489      6491      6489      6492      6492      6493      6492      6494
      6492      6495      6495      6496      6495      6497      6497      6498
      6497      6499      6499      6500      6499      6501      6499      6502
      6502      6503      6502      6504      6502      6505      6505      6506
      6505      6507      6505      6508      6508      6509      6508      6510
      6508      6511      6511      6512      6511      6513      6511      6514
      6514      6515      6514      6516      6514      6517      6517      6518
      6517      6519      6517      6520      6520      6521      6520      6522
      6520      6523      6471      6472      6472      6474      6472      6473
      6474      6475      6474      6476      6474      6524      6524      6525
      6524      6526      6524      6527      6527      6528      6527      6529
      6527      6530      6530      6531      6530      6532      6530      6533
      6533      6534      6533      6535      6533      6536      6536      6537
      6536      6538      6536      6539      6539      6540      6539      6541
      6539      6542      6542      6543      6542      6544      6542      6545
      6545      6546      6545      6547      6545      6548      6548      6549
      6548      6550      6548      6551      6551      6552      6551      6553
      6551      6554      6554      6555      6554      6556      6554      6557
      6557      6558      6557      6559      6557      6560      6560      6561
      6560      6562      6560      6563      6563      6564      6563      6565
      6563      6566      6567      6571      6567      6575      6567      6579
      6571      6572      6571      6573      6571      6574      6575      6576
      6575      6577      6575      6578      6579      6580      6579      6581
      6579      6582      6567      6568      6568      6569      6568      6570
      6568      6583      6583      6584      6583      6585      6583      6589
      6590      6591      6589      6586      6586      6590      6586      6587
      6586      6588      6591      6592      6591      6593      6591      6594
      6594      6595      6594      6602      6594      6596      6602      6603
      6602      6604      6602      6605      6596      6597      6597      6599
      6597      6598      6599      6600      6599      6601      6599      6611
      6611      6612      6611      6613      6611      6614      6614      6615
      6614      6616      6614      6617      6617      6618      6617      6619
      6617      6620      6620      6621      6620      6622      6620      6623
      6623      6624      6623      6625      6623      6626      6626      6627
      6626      6628      6626      6629      6629      6630      6629      6631
      6631      6632      6631      6633      6633      6634      6633      6635
      6633      6636      6636      6637      6636      6638      6636      6639
      6639      6640      6639      6641      6639      6642      6642      6643
      6642      6644      6642      6645      6645      6646      6645      6647
      6645      6648      6648      6649      6648      6650      6648      6651
      6651      6652      6651      6653      6651      6654      6654      6655
      6654      6656      6654      6657      6605      6606      6606      6608
      6606      6607      6608      6609      6608      6610      6608      6658
      6658      6659      6658      6660      6658      6661      6661      6662
      6661      6663      6661      6664      6664      6665      6664      6666
      6664      6667      6667      6668      6667      6669      6667      6670
      6670      6671      6670      6672      6670      6673      6673      6674
      6673      6675      6673      6676      6676      6677      6676      6678
      6676      6679      6679      6680      6679      6681      6679      6682
      6682      6683      6682      6684      6682      6685      6685      6686
      6685      6687      6685      6688      6688      6689      6688      6690
      6688      6691      6691      6692      6691      6693      6691      6694
      6694      6695      6694      6696      6694      6697      6697      6698
      6697      6699      6697      6700      6701      6705      6701      6709
      6701      6713      6705      6706      6705      6707      6705      6708
      6709      6710      6709      6711      6709      6712      6713      6714
      6713      6715      6713      6716      6701      6702      6702      6703
      6702      6704      6702      6717      6717      6718      6717      6719
      6717      6723      6724      6725      6723      6720      6720      6724
      6720      6721      6720      6722      6725      6726      6725      6727
      6725      6728      6728      6729      6728      6736      6728      6730
      6736      6737      6736      6738      6736      6739      6730      6731
      6731      6733      6731      6732      6733      6734      6733      6735
      6733      6745      6745      6746      6745      6747      6745      6748
      6748      6749      6748      6750      6748      6751      6751      6752
      6751      6753      6751      6754      6754      6755      6754      6756
      6754      6757      6757      6758      6757      6759      6757      6760
      6760      6761      6760      6762      6760      6763      6763      6764
      6763      6765      6765      6766      6765      6767      6767      6768
      6767      6769      6767      6770      6770      6771      6770      6772
      6770      6773      6773      6774      6773      6775      6773      6776
      6776      6777      6776      6778      6776      6779      6779      6780
      6779      6781      6779      6782      6782      6783      6782      6784
      6782      6785      6785      6786      6785      6787      6785      6788
      6788      6789      6788      6790      6788      6791      6739      6740
      6740      6742      6740      6741      6742      6743      6742      6744
      6742      6792      6792      6793      6792      6794      6792      6795
      6795      6796      6795      6797      6795      6798      6798      6799
      6798      6800      6798      6801      6801      6802      6801      6803
      6801      6804      6804      6805      6804      6806      6804      6807
      6807      6808      6807      6809      6807      6810      6810      6811
      6810      6812      6810      6813      6813      6814      6813      6815
      6813      6816      6816      6817      6816      6818      6816      6819
      6819      6820      6819      6821      6819      6822      6822      6823
      6822      6824      6822      6825      6825      6826      6825      6827
      6825      6828      6828      6829      6828      6830      6828      6831
      6831      6832      6831      6833      6831      6834      6835      6839
      6835      6843      6835      6847      6839      6840      6839      6841
      6839      6842      6843      6844      6843      6845      6843      6846
      6847      6848      6847      6849      6847      6850      6835      6836
      6836      6837      6836      6838      6836      6851      6851      6852
      6851      6853      6851      6857      6858      6859      6857      6854
      6854      6858      6854      6855      6854      6856      6859      6860
      6859      6861      6859      6862      6862      6863      6862      6870
      6862      6864      6870      6871      6870      6872      6870      6873
      6864      6865      6865      6867      6865      6866      6867      6868
      6867      6869      6867      6879      6879      6880      6879      6881
      6879      6882      6882      6883      6882      6884      6882      6885
      6885      6886      6885      6887      6885      6888      6888      6889
      6888      6890      6888      6891      6891      6892      6891      6893
      6891      6894      6894      6895      6894      6896      6894      6897
      6897      6898      6897      6899      6899      6900      6899      6901
      6901      6902      6901      6903      6901      6904      6904      6905
      6904      6906      6904      6907      6907      6908      6907      6909
      6907      6910      6910      6911      6910      6912      6910      6913
      6913      6914      6913      6915      6913      6916      6916      6917
      6916      6918      6916      6919      6919      6920      6919      6921
      6919      6922      6922      6923      6922      6924      6922      6925
      6873      6874      6874      6876      6874      6875      6876      6877
      6876      6878      6876      6926      6926      6927      6926      6928
      6926      6929      6929      6930      6929      6931      6929      6932
      6932      6933      6932      6934      6932      6935      6935      6936
      6935      6937      6935      6938      6938      6939      6938      6940
      6938      6941      6941      6942      6941      6943      6941      6944
      6944      6945      6944      6946      6944      6947      6947      6948
      6947      6949      6947      6950      6950      6951      6950      6952
      6950      6953      6953      6954      6953      6955      6953      6956
      6956      6957      6956      6958      6956      6959      6959      6960
      6959      6961      6959      6962      6962      6963      6962      6964
      6962      6965      6965      6966      6965      6967      6965      6968
      6969      6973      6969      6977      6969      6981      6973      6974
      6973      6975      6973      6976      6977      6978      6977      6979
      6977      6980      6981      6982      6981      6983      6981      6984
      6969      6970      6970      6971      6970      6972      6970      6985
      6985      6986      6985      6987      6985      6991      6992      6993
      6991      6988      6988      6992      6988      6989      6988      6990
      6993      6994      6993      6995      6993      6996      6996      6997
      6996      7004      6996      6998      7004      7005      7004      7006
      7004      7007      6998      6999      6999      7001      6999      7000
      7001      7002      7001      7003      7001      7013      7013      7014
      7013      7015      7013      7016      7016      7017      7016      7018
      7016      7019      7019      7020      7019      7021      7019      7022
      7022      7023      7022      7024      7022      7025      7025      7026
      7025      7027      7025      7028      7028      7029      7028      7030
      7028      7031      7031      7032      7031      7033      7033      7034
      7033      7035      7035      7036      7035      7037      7035      7038
      7038      7039      7038      7040      7038      7041      7041      7042
      7041      7043      7041      7044      7044      7045      7044      7046
      7044      7047      7047      7048      7047      7049      7047      7050
      7050      7051      7050      7052      7050      7053      7053      7054
      7053      7055      7053      7056      7056      7057      7056      7058
      7056      7059      7007      7008      7008      7010      7008      7009
      7010      7011      7010      7012      7010      7060      7060      7061
      7060      7062      7060      7063      7063      7064      7063      7065
      7063      7066      7066      7067      7066      7068      7066      7069
      7069      7070      7069      7071      7069      7072      7072      7073
      7072      7074      7072      7075      7075      7076      7075      7077
      7075      7078      7078      7079      7078      7080      7078      7081
      7081      7082      7081      7083      7081      7084      7084      7085
      7084      7086      7084      7087      7087      7088      7087      7089
      7087      7090      7090      7091      7090      7092      7090      7093
      7093      7094      7093      7095      7093      7096      7096      7097
      7096      7098      7096      7099      7099      7100      7099      7101
      7099      7102      7103      7107      7103      7111      7103      7115
      7107      7108      7107      7109      7107      7110      7111      7112
      7111      7113      7111      7114      7115      7116      7115      7117
      7115      7118      7103      7104      7104      7105      7104      7106
      7104      7119      7119      7120      7119      7121      7119      7125
      7126      7127      7125      7122      7122      7126      7122      7123
      7122      7124      7127      7128      7127      7129      7127      7130
      7130      7131      7130      7138      7130      7132      7138      7139
      7138      7140      7138      7141      7132      7133      7133      7135
      7133      7134      7135      7136      7135      7137      7135      7147
      7147      7148      7147      7149      7147      7150      7150      7151
      7150      7152      7150      7153      7153      7154      7153      7155
      7153      7156      7156      7157      7156      7158      7156      7159
      7159      7160      7159      7161      7159      7162      7162      7163
      7162      7164      7162      7165      7165      7166      7165      7167
      7167      7168      7167      7169      7169      7170      7169      7171
      7169      7172      7172      7173      7172      7174      7172      7175
      7175      7176      7175      7177      7175      7178      7178      7179
      7178      7180      7178      7181      7181      7182      7181      7183
      7181      7184      7184      7185      7184      7186      7184      7187
      7187      7188      7187      7189      7187      7190      7190      7191
      7190      7192      7190      7193      7141      7142      7142      7144
      7142      7143      7144      7145      7144      7146      7144      7194
      7194      7195      7194      7196      7194      7197      7197      7198
      7197      7199      7197      7200      7200      7201      7200      7202
      7200      7203      7203      7204      7203      7205      7203      7206
      7206      7207      7206      7208      7206      7209      7209      7210
      7209      7211      7209      7212      7212      7213      7212      7214
      7212      7215      7215      7216      7215      7217      7215      7218
      7218      7219      7218      7220      7218      7221      7221      7222
      7221      7223      7221      7224      7224      7225      7224      7226
      7224      7227      7227      7228      7227      7229      7227      7230
      7230      7231      7230      7232      7230      7233      7233      7234
      7233      7235      7233      7236      7237      7241      7237      7245
      7237      7249      7241      7242      7241      7243      7241      7244
      7245      7246      7245      7247      7245      7248      7249      7250
      7249      7251      7249      7252      7237      7238      7238      7239
      7238      7240      7238      7253      7253      7254      7253      7255
      7253      7259      7260      7261      7259      7256      7256      7260
      7256      7257      7256      7258      7261      7262      7261      7263
      7261      7264      7264      7265      7264      7272      7264      7266
      7272      7273      7272      7274      7272      7275      7266      7267
      7267      7269      7267      7268      7269      7270      7269      7271
      7269      7281      7281      7282      7281      7283      7281      7284
      7284      7285      7284      7286      7284      7287      7287      7288
      7287      7289      7287      7290      7290      7291      7290      7292
      7290      7293      7293      7294      7293      7295      7293      7296
      7296      7297      7296      7298      7296      7299      7299      7300
      7299      7301      7301      7302      7301      7303      7303      7304
      7303      7305      7303      7306      7306      7307      7306      7308
      7306      7309      7309      7310      7309      7311      7309      7312
      7312      7313      7312      7314      7312      7315      7315      7316
      7315      7317      7315      7318      7318      7319      7318      7320
      7318      7321      7321      7322      7321      7323      7321      7324
      7324      7325      7324      7326      7324      7327      7275      7276
      7276      7278      7276      7277      7278      7279      7278      7280
      7278      7328      7328      7329      7328      7330      7328      7331
      7331      7332      7331      7333      7331      7334      7334      7335
      7334      7336      7334      7337      7337      7338      7337      7339
      7337      7340      7340      7341      7340      7342      7340      7343
      7343      7344      7343      7345      7343      7346      7346      7347
      7346      7348      7346      7349      7349      7350      7349      7351
      7349      7352      7352      7353      7352      7354      7352      7355
      7355      7356      7355      7357      7355      7358      7358      7359
      7358      7360      7358      7361      7361      7362      7361      7363
      7361      7364      7364      7365      7364      7366      7364      7367
      7367      7368      7367      7369      7367      7370      7371      7375
      7371      7379      7371      7383      7375      7376      7375      7377
      7375      7378      7379      7380      7379      7381      7379      7382
      7383      7384      7383      7385      7383      7386      7371      7372
      7372      7373      7372      7374      7372      7387      7387      7388
      7387      7389      7387      7393      7394      7395      7393      7390
      7390      7394      7390      7391      7390      7392      7395      7396
      7395      7397      7395      7398      7398      7399      7398      7406
      7398      7400      7406      7407      7406      7408      7406      7409
      7400      7401      7401      7403      7401      7402      7403      7404
      7403      7405      7403      7415      7415      7416      7415      7417
      7415      7418      7418      7419      7418      7420      7418      7421
      7421      7422      7421      7423      7421      7424      7424      7425
      7424      7426      7424      7427      7427      7428      7427      7429
      7427      7430      7430      7431      7430      7432      7430      7433
      7433      7434      7433      7435      7435      7436      7435      7437
      7437      7438      7437      7439      7437      7440      7440      7441
      7440      7442      7440      7443      7443      7444      7443      7445
      7443      7446      7446      7447      7446      7448      7446      7449
      7449      7450      7449      7451      7449      7452      7452      7453
      7452      7454      7452      7455      7455      7456      7455      7457
      7455      7458      7458      7459      7458      7460      7458      7461
      7409      7410      7410      7412      7410      7411      7412      7413
      7412      7414      7412      7462      7462      7463      7462      7464
      7462      7465      7465      7466      7465      7467      7465      7468
      7468      7469      7468      7470      7468      7471      7471      7472
      7471      7473      7471      7474      7474      7475      7474      7476
      7474      7477      7477      7478      7477      7479      7477      7480
      7480      7481      7480      7482      7480      7483      7483      7484
      7483      7485      7483      7486      7486      7487      7486      7488
      7486      7489      7489      7490      7489      7491      7489      7492
      7492      7493      7492      7494      7492      7495      7495      7496
      7495      7497      7495      7498      7498      7499      7498      7500
      7498      7501      7501      7502      7501      7503      7501      7504
      7505      7509      7505      7513      7505      7517      7509      7510
      7509      7511      7509      7512      7513      7514      7513      7515
      7513      7516      7517      7518      7517      7519      7517      7520
      7505      7506      7506      7507      7506      7508      7506      7521
      7521      7522      7521      7523      7521      7527      7528      7529
      7527      7524      7524      7528      7524      7525      7524      7526
      7529      7530      7529      7531      7529      7532      7532      7533
      7532      7540      7532      7534      7540      7541      7540      7542
      7540      7543      7534      7535      7535      7537      7535      7536
      7537      7538      7537      7539      7537      7549      7549      7550
      7549      7551      7549      7552      7552      7553      7552      7554
      7552      7555      7555      7556      7555      7557      7555      7558
      7558      7559      7558      7560      7558      7561      7561      7562
      7561      7563      7561      7564      7564      7565      7564      7566
      7564      7567      7567      7568      7567      7569      7569      7570
      7569      7571      7571      7572      7571      7573      7571      7574
      7574      7575      7574      7576      7574      7577      7577      7578
      7577      7579      7577      7580      7580      7581      7580      7582
      7580      7583      7583      7584      7583      7585      7583      7586
      7586      7587      7586      7588      7586      7589      7589      7590
      7589      7591      7589      7592      7592      7593      7592      7594
      7592      7595      7543      7544      7544      7546      7544      7545
      7546      7547      7546      7548      7546      7596      7596      7597
      7596      7598      7596      7599      7599      7600      7599      7601
      7599      7602      7602      7603      7602      7604      7602      7605
      7605      7606      7605      7607      7605      7608      7608      7609
      7608      7610      7608      7611      7611      7612      7611      7613
      7611      7614      7614      7615      7614      7616      7614      7617
      7617      7618      7617      7619      7617      7620      7620      7621
      7620      7622      7620      7623      7623      7624      7623      7625
      7623      7626      7626      7627      7626      7628      7626      7629
      7629      7630      7629      7631      7629      7632      7632      7633
      7632      7634      7632      7635      7635      7636      7635      7637
      7635      7638      7639      7643      7639      7647      7639      7651
      7643      7644      7643      7645      7643      7646      7647      7648
      7647      7649      7647      7650      7651      7652      7651      7653
      7651      7654      7639      7640      7640      7641      7640      7642
      7640      7655      7655      7656      7655      7657      7655      7661
      7662      7663      7661      7658      7658      7662      7658      7659
      7658      7660      7663      7664      7663      7665      7663      7666
      7666      7667      7666      7674      7666      7668      7674      7675
      7674      7676      7674      7677      7668      7669      7669      7671
      7669      7670      7671      7672      7671      7673      7671      7683
      7683      7684      7683      7685      7683      7686      7686      7687
      7686      7688      7686      7689      7689      7690      7689      7691
      7689      7692      7692      7693      7692      7694      7692      7695
      7695      7696      7695      7697      7695      7698      7698      7699
      7698      7700      7698      7701      7701      7702      7701      7703
      7703      7704      7703      7705      7705      7706      7705      7707
      7705      7708      7708      7709      7708      7710      7708      7711
      7711      7712      7711      7713      7711      7714      7714      7715
      7714      7716      7714      7717      7717      7718      7717      7719
      7717      7720      7720      7721      7720      7722      7720      7723
      7723      7724      7723      7725      7723      7726      7726      7727
      7726      7728      7726      7729      7677      7678      7678      7680
      7678      7679      7680      7681      7680      7682      7680      7730
      7730      7731      7730      7732      7730      7733      7733      7734
      7733      7735      7733      7736      7736      7737      7736      7738
      7736      7739      7739      7740      7739      7741      7739      7742
      7742      7743      7742      7744      7742      7745      7745      7746
      7745      7747      7745      7748      7748      7749      7748      7750
      7748      7751      7751      7752      7751      7753      7751      7754
      7754      7755      7754      7756      7754      7757      7757      7758
      7757      7759      7757      7760      7760      7761      7760      7762
      7760      7763      7763      7764      7763      7765      7763      7766
      7766      7767      7766      7768      7766      7769      7769      7770
      7769      7771      7769      7772      7773      7777      7773      7781
      7773      7785      7777      7778      7777      7779      7777      7780
      7781      7782      7781      7783      7781      7784      7785      7786
      7785      7787      7785      7788      7773      7774      7774      7775
      7774      7776      7774      7789      7789      7790      7789      7791
      7789      7795      7796      7797      7795      7792      7792      7796
      7792      7793      7792      7794      7797      7798      7797      7799
      7797      7800      7800      7801      7800      7808      7800      7802
      7808      7809      7808      7810      7808      7811      7802      7803
      7803      7805      7803      7804      7805      7806      7805      7807
      7805      7817      7817      7818      7817      7819      7817      7820
      7820      7821      7820      7822      7820      7823      7823      7824
      7823      7825      7823      7826      7826      7827      7826      7828
      7826      7829      7829      7830      7829      7831      7829      7832
      7832      7833      7832      7834      7832      7835      7835      7836
      7835      7837      7837      7838      7837      7839      7839      7840
      7839      7841      7839      7842      7842      7843      7842      7844
      7842      7845      7845      7846      7845      7847      7845      7848
      7848      7849      7848      7850      7848      7851      7851      7852
      7851      7853      7851      7854      7854      7855      7854      7856
      7854      7857      7857      7858      7857      7859      7857      7860
      7860      7861      7860      7862      7860      7863      7811      7812
      7812      7814      7812      7813      7814      7815      7814      7816
      7814      7864      7864      7865      7864      7866      7864      7867
      7867      7868      7867      7869      7867      7870      7870      7871
      7870      7872      7870      7873      7873      7874      7873      7875
      7873      7876      7876      7877      7876      7878      7876      7879
      7879      7880      7879      7881      7879      7882      7882      7883
      7882      7884      7882      7885      7885      7886      7885      7887
      7885      7888      7888      7889      7888      7890      7888      7891
      7891      7892      7891      7893      7891      7894      7894      7895
      7894      7896      7894      7897      7897      7898      7897      7899
      7897      7900      7900      7901      7900      7902      7900      7903
      7903      7904      7903      7905      7903      7906      7907      7911
      7907      7915      7907      7919      7911      7912      7911      7913
      7911      7914      7915      7916      7915      7917      7915      7918
      7919      7920      7919      7921      7919      7922      7907      7908
      7908      7909      7908      7910      7908      7923      7923      7924
      7923      7925      7923      7929      7930      7931      7929      7926
      7926      7930      7926      7927      7926      7928      7931      7932
      7931      7933      7931      7934      7934      7935      7934      7942
      7934      7936      7942      7943      7942      7944      7942      7945
      7936      7937      7937      7939      7937      7938      7939      7940
      7939      7941      7939      7951      7951      7952      7951      7953
      7951      7954      7954      7955      7954      7956      7954      7957
      7957      7958      7957      7959      7957      7960      7960      7961
      7960      7962      7960      7963      7963      7964      7963      7965
      7963      7966      7966      7967      7966      7968      7966      7969
      7969      7970      7969      7971      7971      7972      7971      7973
      7973      7974      7973      7975      7973      7976      7976      7977
      7976      7978      7976      7979      7979      7980      7979      7981
      7979      7982      7982      7983      7982      7984      7982      7985
      7985      7986      7985      7987      7985      7988      7988      7989
      7988      7990      7988      7991      7991      7992      7991      7993
      7991      7994      7994      7995      7994      7996      7994      7997
      7945      7946      7946      7948      7946      7947      7948      7949
      7948      7950      7948      7998      7998      7999      7998      8000
      7998      8001      8001      8002      8001      8003      8001      8004
      8004      8005      8004      8006      8004      8007      8007      8008
      8007      8009      8007      8010      8010      8011      8010      8012
      8010      8013      8013      8014      8013      8015      8013      8016
      8016      8017      8016      8018      8016      8019      8019      8020
      8019      8021      8019      8022      8022      8023      8022      8024
      8022      8025      8025      8026      8025      8027      8025      8028
      8028      8029      8028      8030      8028      8031      8031      8032
      8031      8033      8031      8034      8034      8035      8034      8036
      8034      8037      8037      8038      8037      8039      8037      8040
      8041      8045      8041      8049      8041      8053      8045      8046
      8045      8047      8045      8048      8049      8050      8049      8051
      8049      8052      8053      8054      8053      8055      8053      8056
      8041      8042      8042      8043      8042      8044      8042      8057
      8057      8058      8057      8059      8057      8063      8064      8065
      8063      8060      8060      8064      8060      8061      8060      8062
      8065      8066      8065      8067      8065      8068      8068      8069
      8068      8076      8068      8070      8076      8077      8076      8078
      8076      8079      8070      8071      8071      8073      8071      8072
      8073      8074      8073      8075      8073      8085      8085      8086
      8085      8087      8085      8088      8088      8089      8088      8090
      8088      8091      8091      8092      8091      8093      8091      8094
      8094      8095      8094      8096      8094      8097      8097      8098
      8097      8099      8097      8100      8100      8101      8100      8102
      8100      8103      8103      8104      8103      8105      8105      8106
      8105      8107      8107      8108      8107      8109      8107      8110
      8110      8111      8110      8112      8110      8113      8113      8114
      8113      8115      8113      8116      8116      8117      8116      8118
      8116      8119      8119      8120      8119      8121      8119      8122
      8122      8123      8122      8124      8122      8125      8125      8126
      8125      8127      8125      8128      8128      8129      8128      8130
      8128      8131      8079      8080      8080      8082      8080      8081
      8082      8083      8082      8084      8082      8132      8132      8133
      8132      8134      8132      8135      8135      8136      8135      8137
      8135      8138      8138      8139      8138      8140      8138      8141
      8141      8142      8141      8143      8141      8144      8144      8145
      8144      8146      8144      8147      8147      8148      8147      8149
      8147      8150      8150      8151      8150      8152      8150      8153
      8153      8154      8153      8155      8153      8156      8156      8157
      8156      8158      8156      8159      8159      8160      8159      8161
      8159      8162      8162      8163      8162      8164      8162      8165
      8165      8166      8165      8167      8165      8168      8168      8169
      8168      8170      8168      8171      8171      8172      8171      8173
      8171      8174      8175      8179      8175      8183      8175      8187
      8179      8180      8179      8181      8179      8182      8183      8184
      8183      8185      8183      8186      8187      8188      8187      8189
      8187      8190      8175      8176      8176      8177      8176      8178
      8176      8191      8191      8192      8191      8193      8191      8197
      8198      8199      8197      8194      8194      8198      8194      8195
      8194      8196      8199      8200      8199      8201      8199      8202
      8202      8203      8202      8210      8202      8204      8210      8211
      8210      8212      8210      8213      8204      8205      8205      8207
      8205      8206      8207      8208      8207      8209      8207      8219
      8219      8220      8219      8221      8219      8222      8222      8223
      8222      8224      8222      8225      8225      8226      8225      8227
      8225      8228      8228      8229      8228      8230      8228      8231
      8231      8232      8231      8233      8231      8234      8234      8235
      8234      8236      8234      8237      8237      8238      8237      8239
      8239      8240      8239      8241      8241      8242      8241      8243
      8241      8244      8244      8245      8244      8246      8244      8247
      8247      8248      8247      8249      8247      8250      8250      8251
      8250      8252      8250      8253      8253      8254      8253      8255
      8253      8256      8256      8257      8256      8258      8256      8259
      8259      8260      8259      8261      8259      8262      8262      8263
      8262      8264      8262      8265      8213      8214      8214      8216
      8214      8215      8216      8217      8216      8218      8216      8266
      8266      8267      8266      8268      8266      8269      8269      8270
      8269      8271      8269      8272      8272      8273      8272      8274
      8272      8275      8275      8276      8275      8277      8275      8278
      8278      8279      8278      8280      8278      8281      8281      8282
      8281      8283      8281      8284      8284      8285      8284      8286
      8284      8287      8287      8288      8287      8289      8287      8290
      8290      8291      8290      8292      8290      8293      8293      8294
      8293      8295      8293      8296      8296      8297      8296      8298
      8296      8299      8299      8300      8299      8301      8299      8302
      8302      8303      8302      8304      8302      8305      8305      8306
      8305      8307      8305      8308      8309      8313      8309      8317
      8309      8321      8313      8314      8313      8315      8313      8316
      8317      8318      8317      8319      8317      8320      8321      8322
      8321      8323      8321      8324      8309      8310      8310      8311
      8310      8312      8310      8325      8325      8326      8325      8327
      8325      8331      8332      8333      8331      8328      8328      8332
      8328      8329      8328      8330      8333      8334      8333      8335
      8333      8336      8336      8337      8336      8344      8336      8338
      8344      8345      8344      8346      8344      8347      8338      8339
      8339      8341      8339      8340      8341      8342      8341      8343
      8341      8353      8353      8354      8353      8355      8353      8356
      8356      8357      8356      8358      8356      8359      8359      8360
      8359      8361      8359      8362      8362      8363      8362      8364
      8362      8365      8365      8366      8365      8367      8365      8368
      8368      8369      8368      8370      8368      8371      8371      8372
      8371      8373      8373      8374      8373      8375      8375      8376
      8375      8377      8375      8378      8378      8379      8378      8380
      8378      8381      8381      8382      8381      8383      8381      8384
      8384      8385      8384      8386      8384      8387      8387      8388
      8387      8389      8387      8390      8390      8391      8390      8392
      8390      8393      8393      8394      8393      8395      8393      8396
      8396      8397      8396      8398      8396      8399      8347      8348
      8348      8350      8348      8349      8350      8351      8350      8352
      8350      8400      8400      8401      8400      8402      8400      8403
      8403      8404      8403      8405      8403      8406      8406      8407
      8406      8408      8406      8409      8409      8410      8409      8411
      8409      8412      8412      8413      8412      8414      8412      8415
      8415      8416      8415      8417      8415      8418      8418      8419
      8418      8420      8418      8421      8421      8422      8421      8423
      8421      8424      8424      8425      8424      8426      8424      8427
      8427      8428      8427      8429      8427      8430      8430      8431
      8430      8432      8430      8433      8433      8434      8433      8435
      8433      8436      8436      8437      8436      8438      8436      8439
      8439      8440      8439      8441      8439      8442      8443      8447
      8443      8451      8443      8455      8447      8448      8447      8449
      8447      8450      8451      8452      8451      8453      8451      8454
      8455      8456      8455      8457      8455      8458      8443      8444
      8444      8445      8444      8446      8444      8459      8459      8460
      8459      8461      8459      8465      8466      8467      8465      8462
      8462      8466      8462      8463      8462      8464      8467      8468
      8467      8469      8467      8470      8470      8471      8470      8478
      8470      8472      8478      8479      8478      8480      8478      8481
      8472      8473      8473      8475      8473      8474      8475      8476
      8475      8477      8475      8487      8487      8488      8487      8489
      8487      8490      8490      8491      8490      8492      8490      8493
      8493      8494      8493      8495      8493      8496      8496      8497
      8496      8498      8496      8499      8499      8500      8499      8501
      8499      8502      8502      8503      8502      8504      8502      8505
      8505      8506      8505      8507      8507      8508      8507      8509
      8509      8510      8509      8511      8509      8512      8512      8513
      8512      8514      8512      8515      8515      8516      8515      8517
      8515      8518      8518      8519      8518      8520      8518      8521
      8521      8522      8521      8523      8521      8524      8524      8525
      8524      8526      8524      8527      8527      8528      8527      8529
      8527      8530      8530      8531      8530      8532      8530      8533
      8481      8482      8482      8484      8482      8483      8484      8485
      8484      8486      8484      8534      8534      8535      8534      8536
      8534      8537      8537      8538      8537      8539      8537      8540
      8540      8541      8540      8542      8540      8543      8543      8544
      8543      8545      8543      8546      8546      8547      8546      8548
      8546      8549      8549      8550      8549      8551      8549      8552
      8552      8553      8552      8554      8552      8555      8555      8556
      8555      8557      8555      8558      8558      8559      8558      8560
      8558      8561      8561      8562      8561      8563      8561      8564
      8564      8565      8564      8566      8564      8567      8567      8568
      8567      8569      8567      8570      8570      8571      8570      8572
      8570      8573      8573      8574      8573      8575      8573      8576
      8577      8578      8577      8579      8578      8579      8580      8581
      8580      8582      8581      8582      8583      8584      8583      8585
      8584      8585      8586      8587      8586      8588      8587      8588
      8589      8590      8589      8591      8590      8591      8592      8593
      8592      8594      8593      8594      8595      8596      8595      8597
      8596      8597      8598      8599      8598      8600      8599      8600
      8601      8602      8601      8603      8602      8603      8604      8605
      8604      8606      8605      8606      8607      8608      8607      8609
      8608      8609      8610      8611      8610      8612      8611      8612
      8613      8614      8613      8615      8614      8615      8616      8617
      8616      8618      8617      8618      8619      8620      8619      8621
      8620      8621      8622      8623      8622      8624      8623      8624
      8625      8626      8625      8627      8626      8627      8628      8629
      8628      8630      8629      8630      8631      8632      8631      8633
      8632      8633      8634      8635      8634      8636      8635      8636
      8637      8638      8637      8639      8638      8639      8640      8641
      8640      8642      8641      8642      8643      8644      8643      8645
      8644      8645      8646      8647      8646      8648      8647      8648
      8649      8650      8649      8651      8650      8651      8652      8653
      8652      8654      8653      8654      8655      8656      8655      8657
      8656      8657      8658      8659      8658      8660      8659      8660
      8661      8662      8661      8663      8662      8663      8664      8665
      8664      8666      8665      8666      8667      8668      8667      8669
      8668      8669      8670      8671      8670      8672      8671      8672
      8673      8674      8673      8675      8674      8675      8676      8677
      8676      8678      8677      8678      8679      8680      8679      8681
      8680      8681      8682      8683      8682      8684      8683      8684
      8685      8686      8685      8687      8686      8687      8688      8689
      8688      8690      8689      8690      8691      8692      8691      8693
      8692      8693      8694      8695      8694      8696      8695      8696
      8697      8698      8697      8699      8698      8699      8700      8701
      8700      8702      8701      8702      8703      8704      8703      8705
      8704      8705      8706      8707      8706      8708      8707      8708
      8709      8710      8709      8711      8710      8711      8712      8713
      8712      8714      8713      8714      8715      8716      8715      8717
      8716      8717      8718      8719      8718      8720      8719      8720
      8721      8722      8721      8723      8722      8723      8724      8725
      8724      8726      8725      8726      8727      8728      8727      8729
      8728      8729      8730      8731      8730      8732      8731      8732
      8733      8734      8733      8735      8734      8735      8736      8737
      8736      8738      8737      8738      8739      8740      8739      8741
      8740      8741      8742      8743      8742      8744      8743      8744
      8745      8746      8745      8747      8746      8747      8748      8749
      8748      8750      8749      8750      8751      8752      8751      8753
      8752      8753      8754      8755      8754      8756      8755      8756
      8757      8758      8757      8759      8758      8759      8760      8761
      8760      8762      8761      8762      8763      8764      8763      8765
      8764      8765      8766      8767      8766      8768      8767      8768
      8769      8770      8769      8771      8770      8771      8772      8773
      8772      8774      8773      8774      8775      8776      8775      8777
      8776      8777      8778      8779      8778      8780      8779      8780
      8781      8782      8781      8783      8782      8783      8784      8785
      8784      8786      8785      8786      8787      8788      8787      8789
      8788      8789      8790      8791      8790      8792      8791      8792
      8793      8794      8793      8795      8794      8795      8796      8797
      8796      8798      8797      8798      8799      8800      8799      8801
      8800      8801      8802      8803      8802      8804      8803      8804
      8805      8806      8805      8807      8806      8807      8808      8809
      8808      8810      8809      8810      8811      8812      8811      8813
      8812      8813      8814      8815      8814      8816      8815      8816
      8817      8818      8817      8819      8818      8819      8820      8821
      8820      8822      8821      8822      8823      8824      8823      8825
      8824      8825      8826      8827      8826      8828      8827      8828
      8829      8830      8829      8831      8830      8831      8832      8833
      8832      8834      8833      8834      8835      8836      8835      8837
      8836      8837      8838      8839      8838      8840      8839      8840
      8841      8842      8841      8843      8842      8843      8844      8845
      8844      8846      8845      8846      8847      8848      8847      8849
      8848      8849      8850      8851      8850      8852      8851      8852
      8853      8854      8853      8855      8854      8855      8856      8857
      8856      8858      8857      8858      8859      8860      8859      8861
      8860      8861      8862      8863      8862      8864      8863      8864
      8865      8866      8865      8867      8866      8867      8868      8869
      8868      8870      8869      8870      8871      8872      8871      8873
      8872      8873      8874      8875      8874      8876      8875      8876
      8877      8878      8877      8879      8878      8879      8880      8881
      8880      8882      8881      8882      8883      8884      8883      8885
      8884      8885      8886      8887      8886      8888      8887      8888
      8889      8890      8889      8891      8890      8891      8892      8893
      8892      8894      8893      8894      8895      8896      8895      8897
      8896      8897      8898      8899      8898      8900      8899      8900
      8901      8902      8901      8903      8902      8903      8904      8905
      8904      8906      8905      8906      8907      8908      8907      8909
      8908      8909      8910      8911      8910      8912      8911      8912
      8913      8914      8913      8915      8914      8915      8916      8917
      8916      8918      8917      8918      8919      8920      8919      8921
      8920      8921      8922      8923      8922      8924      8923      8924
      8925      8926      8925      8927      8926      8927      8928      8929
      8928      8930      8929      8930      8931      8932      8931      8933
      8932      8933      8934      8935      8934      8936      8935      8936
      8937      8938      8937      8939      8938      8939      8940      8941
      8940      8942      8941      8942      8943      8944      8943      8945
      8944      8945      8946      8947      8946      8948      8947      8948
      8949      8950      8949      8951      8950      8951      8952      8953
      8952      8954      8953      8954      8955      8956      8955      8957
      8956      8957      8958      8959      8958      8960      8959      8960
      8961      8962      8961      8963      8962      8963      8964      8965
      8964      8966      8965      8966      8967      8968      8967      8969
      8968      8969      8970      8971      8970      8972      8971      8972
      8973      8974      8973      8975      8974      8975      8976      8977
      8976      8978      8977      8978      8979      8980      8979      8981
      8980      8981      8982      8983      8982      8984      8983      8984
      8985      8986      8985      8987      8986      8987      8988      8989
      8988      8990      8989      8990      8991      8992      8991      8993
      8992      8993      8994      8995      8994      8996      8995      8996
      8997      8998      8997      8999      8998      8999      9000      9001
      9000      9002      9001      9002      9003      9004      9003      9005
      9004      9005      9006      9007      9006      9008      9007      9008
      9009      9010      9009      9011      9010      9011      9012      9013
      9012      9014      9013      9014      9015      9016      9015      9017
      9016      9017      9018      9019      9018      9020      9019      9020
      9021      9022      9021      9023      9022      9023      9024      9025
      9024      9026      9025      9026      9027      9028      9027      9029
      9028      9029      9030      9031      9030      9032      9031      9032
      9033      9034      9033      9035      9034      9035      9036      9037
      9036      9038      9037      9038      9039      9040      9039      9041
      9040      9041      9042      9043      9042      9044      9043      9044
      9045      9046      9045      9047      9046      9047      9048      9049
      9048      9050      9049      9050      9051      9052      9051      9053
      9052      9053      9054      9055      9054      9056      9055      9056
      9057      9058      9057      9059      9058      9059      9060      9061
      9060      9062      9061      9062      9063      9064      9063      9065
      9064      9065      9066      9067      9066      9068      9067      9068
      9069      9070      9069      9071      9070      9071      9072      9073
      9072      9074      9073      9074      9075      9076      9075      9077
      9076      9077      9078      9079      9078      9080      9079      9080
      9081      9082      9081      9083      9082      9083      9084      9085
      9084      9086      9085      9086      9087      9088      9087      9089
      9088      9089      9090      9091      9090      9092      9091      9092
      9093      9094      9093      9095      9094      9095      9096      9097
      9096      9098      9097      9098      9099      9100      9099      9101
      9100      9101      9102      9103      9102      9104      9103      9104
      9105      9106      9105      9107      9106      9107      9108      9109
      9108      9110      9109      9110      9111      9112      9111      9113
      9112      9113      9114      9115      9114      9116      9115      9116
      9117      9118      9117      9119      9118      9119      9120      9121
      9120      9122      9121      9122      9123      9124      9123      9125
      9124      9125      9126      9127      9126      9128      9127      9128
      9129      9130      9129      9131      9130      9131      9132      9133
      9132      9134      9133      9134      9135      9136      9135      9137
      9136      9137      9138      9139      9138      9140      9139      9140
      9141      9142      9141      9143      9142      9143      9144      9145
      9144      9146      9145      9146      9147      9148      9147      9149
      9148      9149      9150      9151      9150      9152      9151      9152
      9153      9154      9153      9155      9154      9155      9156      9157
      9156      9158      9157      9158      9159      9160      9159      9161
      9160      9161      9162      9163      9162      9164      9163      9164
      9165      9166      9165      9167      9166      9167      9168      9169
      9168      9170      9169      9170      9171      9172      9171      9173
      9172      9173      9174      9175      9174      9176      9175      9176
      9177      9178      9177      9179      9178      9179      9180      9181
      9180      9182      9181      9182      9183      9184      9183      9185
      9184      9185      9186      9187      9186      9188      9187      9188
      9189      9190      9189      9191      9190      9191      9192      9193
      9192      9194      9193      9194      9195      9196      9195      9197
      9196      9197      9198      9199      9198      9200      9199      9200
      9201      9202      9201      9203      9202      9203      9204      9205
      9204      9206      9205      9206      9207      9208      9207      9209
      9208      9209      9210      9211      9210      9212      9211      9212
      9213      9214      9213      9215      9214      9215      9216      9217
      9216      9218      9217      9218      9219      9220      9219      9221
      9220      9221      9222      9223      9222      9224      9223      9224
      9225      9226      9225      9227      9226      9227      9228      9229
      9228      9230      9229      9230      9231      9232      9231      9233
      9232      9233      9234      9235      9234      9236      9235      9236
      9237      9238      9237      9239      9238      9239      9240      9241
      9240      9242      9241      9242      9243      9244      9243      9245
      9244      9245      9246      9247      9246      9248      9247      9248
      9249      9250      9249      9251      9250      9251      9252      9253
      9252      9254      9253      9254      9255      9256      9255      9257
      9256      9257      9258      9259      9258      9260      9259      9260
      9261      9262      9261      9263      9262      9263      9264      9265
      9264      9266      9265      9266      9267      9268      9267      9269
      9268      9269      9270      9271      9270      9272      9271      9272
      9273      9274      9273      9275      9274      9275      9276      9277
      9276      9278      9277      9278      9279      9280      9279      9281
      9280      9281      9282      9283      9282      9284      9283      9284
      9285      9286      9285      9287      9286      9287      9288      9289
      9288      9290      9289      9290      9291      9292      9291      9293
      9292      9293      9294      9295      9294      9296      9295      9296
      9297      9298      9297      9299      9298      9299      9300      9301
      9300      9302      9301      9302      9303      9304      9303      9305
      9304      9305      9306      9307      9306      9308      9307      9308
      9309      9310      9309      9311      9310      9311      9312      9313
      9312      9314      9313      9314      9315      9316      9315      9317
      9316      9317      9318      9319      9318      9320      9319      9320
      9321      9322      9321      9323      9322      9323      9324      9325
      9324      9326      9325      9326      9327      9328      9327      9329
      9328      9329      9330      9331      9330      9332      9331      9332
      9333      9334      9333      9335      9334      9335      9336      9337
      9336      9338      9337      9338      9339      9340      9339      9341
      9340      9341      9342      9343      9342      9344      9343      9344
      9345      9346      9345      9347      9346      9347      9348      9349
      9348      9350      9349      9350      9351      9352      9351      9353
      9352      9353      9354      9355      9354      9356      9355      9356
      9357      9358      9357      9359      9358      9359      9360      9361
      9360      9362      9361      9362      9363      9364      9363      9365
      9364      9365      9366      9367      9366      9368      9367      9368
      9369      9370      9369      9371      9370      9371      9372      9373
      9372      9374      9373      9374      9375      9376      9375      9377
      9376      9377      9378      9379      9378      9380      9379      9380
      9381      9382      9381      9383      9382      9383      9384      9385
      9384      9386      9385      9386      9387      9388      9387      9389
      9388      9389      9390      9391      9390      9392      9391      9392
      9393      9394      9393      9395      9394      9395      9396      9397
      9396      9398      9397      9398      9399      9400      9399      9401
      9400      9401      9402      9403      9402      9404      9403      9404
      9405      9406      9405      9407      9406      9407      9408      9409
      9408      9410      9409      9410      9411      9412      9411      9413
      9412      9413      9414      9415      9414      9416      9415      9416
      9417      9418      9417      9419      9418      9419      9420      9421
      9420      9422      9421      9422      9423      9424      9423      9425
      9424      9425      9426      9427      9426      9428      9427      9428
      9429      9430      9429      9431      9430      9431      9432      9433
      9432      9434      9433      9434      9435      9436      9435      9437
      9436      9437      9438      9439      9438      9440      9439      9440
      9441      9442      9441      9443      9442      9443      9444      9445
      9444      9446      9445      9446      9447      9448      9447      9449
      9448      9449      9450      9451      9450      9452      9451      9452
      9453      9454      9453      9455      9454      9455      9456      9457
      9456      9458      9457      9458      9459      9460      9459      9461
      9460      9461      9462      9463      9462      9464      9463      9464
      9465      9466      9465      9467      9466      9467      9468      9469
      9468      9470      9469      9470      9471      9472      9471      9473
      9472      9473      9474      9475      9474      9476      9475      9476
      9477      9478      9477      9479      9478      9479      9480      9481
      9480      9482      9481      9482      9483      9484      9483      9485
      9484      9485      9486      9487      9486      9488      9487      9488
      9489      9490      9489      9491      9490      9491      9492      9493
      9492      9494      9493      9494      9495      9496      9495      9497
      9496      9497      9498      9499      9498      9500      9499      9500
      9501      9502      9501      9503      9502      9503      9504      9505
      9504      9506      9505      9506      9507      9508      9507      9509
      9508      9509      9510      9511      9510      9512      9511      9512
      9513      9514      9513      9515      9514      9515      9516      9517
      9516      9518      9517      9518      9519      9520      9519      9521
      9520      9521      9522      9523      9522      9524      9523      9524
      9525      9526      9525      9527      9526      9527      9528      9529
      9528      9530      9529      9530      9531      9532      9531      9533
      9532      9533      9534      9535      9534      9536      9535      9536
      9537      9538      9537      9539      9538      9539      9540      9541
      9540      9542      9541      9542      9543      9544      9543      9545
      9544      9545      9546      9547      9546      9548      9547      9548
      9549      9550      9549      9551      9550      9551      9552      9553
      9552      9554      9553      9554      9555      9556      9555      9557
      9556      9557      9558      9559      9558      9560      9559      9560
      9561      9562      9561      9563      9562      9563      9564      9565
      9564      9566      9565      9566      9567      9568      9567      9569
      9568      9569      9570      9571      9570      9572      9571      9572
      9573      9574      9573      9575      9574      9575      9576      9577
      9576      9578      9577      9578      9579      9580      9579      9581
      9580      9581      9582      9583      9582      9584      9583      9584
      9585      9586      9585      9587      9586      9587      9588      9589
      9588      9590      9589      9590      9591      9592      9591      9593
      9592      9593      9594      9595      9594      9596      9595      9596
      9597      9598      9597      9599      9598      9599      9600      9601
      9600      9602      9601      9602      9603      9604      9603      9605
      9604      9605      9606      9607      9606      9608      9607      9608
      9609      9610      9609      9611      9610      9611      9612      9613
      9612      9614      9613      9614      9615      9616      9615      9617
      9616      9617      9618      9619      9618      9620      9619      9620
      9621      9622      9621      9623      9622      9623      9624      9625
      9624      9626      9625      9626      9627      9628      9627      9629
      9628      9629      9630      9631      9630      9632      9631      9632
      9633      9634      9633      9635      9634      9635      9636      9637
      9636      9638      9637      9638      9639      9640      9639      9641
      9640      9641      9642      9643      9642      9644      9643      9644
      9645      9646      9645      9647      9646      9647      9648      9649
      9648      9650      9649      9650      9651      9652      9651      9653
      9652      9653      9654      9655      9654      9656      9655      9656
      9657      9658      9657      9659      9658      9659      9660      9661
      9660      9662      9661      9662      9663      9664      9663      9665
      9664      9665      9666      9667      9666      9668      9667      9668
      9669      9670      9669      9671      9670      9671      9672      9673
      9672      9674      9673      9674      9675      9676      9675      9677
      9676      9677      9678      9679      9678      9680      9679      9680
      9681      9682      9681      9683      9682      9683      9684      9685
      9684      9686      9685      9686      9687      9688      9687      9689
      9688      9689      9690      9691      9690      9692      9691      9692
      9693      9694      9693      9695      9694      9695      9696      9697
      9696      9698      9697      9698      9699      9700      9699      9701
      9700      9701      9702      9703      9702      9704      9703      9704
      9705      9706      9705      9707      9706      9707      9708      9709
      9708      9710      9709      9710      9711      9712      9711      9713
      9712      9713      9714      9715      9714      9716      9715      9716
      9717      9718      9717      9719      9718      9719      9720      9721
      9720      9722      9721      9722      9723      9724      9723      9725
      9724      9725      9726      9727      9726      9728      9727      9728
      9729      9730      9729      9731      9730      9731      9732      9733
      9732      9734      9733      9734      9735      9736      9735      9737
      9736      9737      9738      9739      9738      9740      9739      9740
      9741      9742      9741      9743      9742      9743      9744      9745
      9744      9746      9745      9746      9747      9748      9747      9749
      9748      9749      9750      9751      9750      9752      9751      9752
      9753      9754      9753      9755      9754      9755      9756      9757
      9756      9758      9757      9758      9759      9760      9759      9761
      9760      9761      9762      9763      9762      9764      9763      9764
      9765      9766      9765      9767      9766      9767      9768      9769
      9768      9770      9769      9770      9771      9772      9771      9773
      9772      9773      9774      9775      9774      9776      9775      9776
      9777      9778      9777      9779      9778      9779      9780      9781
      9780      9782      9781      9782      9783      9784      9783      9785
      9784      9785      9786      9787      9786      9788      9787      9788
      9789      9790      9789      9791      9790      9791      9792      9793
      9792      9794      9793      9794      9795      9796      9795      9797
      9796      9797      9798      9799      9798      9800      9799      9800
      9801      9802      9801      9803      9802      9803      9804      9805
      9804      9806      9805      9806      9807      9808      9807      9809
      9808      9809      9810      9811      9810      9812      9811      9812
      9813      9814      9813      9815      9814      9815      9816      9817
      9816      9818      9817      9818      9819      9820      9819      9821
      9820      9821      9822      9823      9822      9824      9823      9824
      9825      9826      9825      9827      9826      9827      9828      9829
      9828      9830      9829      9830      9831      9832      9831      9833
      9832      9833      9834      9835      9834      9836      9835      9836
      9837      9838      9837      9839      9838      9839      9840      9841
      9840      9842      9841      9842      9843      9844      9843      9845
      9844      9845      9846      9847      9846      9848      9847      9848
      9849      9850      9849      9851      9850      9851      9852      9853
      9852      9854      9853      9854      9855      9856      9855      9857
      9856      9857      9858      9859      9858      9860      9859      9860
      9861      9862      9861      9863      9862      9863      9864      9865
      9864      9866      9865      9866      9867      9868      9867      9869
      9868      9869      9870      9871      9870      9872      9871      9872
      9873      9874      9873      9875      9874      9875      9876      9877
      9876      9878      9877      9878      9879      9880      9879      9881
      9880      9881      9882      9883      9882      9884      9883      9884
      9885      9886      9885      9887      9886      9887      9888      9889
      9888      9890      9889      9890      9891      9892      9891      9893
      9892      9893      9894      9895      9894      9896      9895      9896
      9897      9898      9897      9899      9898      9899      9900      9901
      9900      9902      9901      9902      9903      9904      9903      9905
      9904      9905      9906      9907      9906      9908      9907      9908
      9909      9910      9909      9911      9910      9911      9912      9913
      9912      9914      9913      9914      9915      9916      9915      9917
      9916      9917      9918      9919      9918      9920      9919      9920
      9921      9922      9921      9923      9922      9923      9924      9925
      9924      9926      9925      9926      9927      9928      9927      9929
      9928      9929      9930      9931      9930      9932      9931      9932
      9933      9934      9933      9935      9934      9935      9936      9937
      9936      9938      9937      9938      9939      9940      9939      9941
      9940      9941      9942      9943      9942      9944      9943      9944
      9945      9946      9945      9947      9946      9947      9948      9949
      9948      9950      9949      9950      9951      9952      9951      9953
      9952      9953      9954      9955      9954      9956      9955      9956
      9957      9958      9957      9959      9958      9959      9960      9961
      9960      9962      9961      9962      9963      9964      9963      9965
      9964      9965      9966      9967      9966      9968      9967      9968
      9969      9970      9969      9971      9970      9971      9972      9973
      9972      9974      9973      9974      9975      9976      9975      9977
      9976      9977      9978      9979      9978      9980      9979      9980
      9981      9982      9981      9983      9982      9983      9984      9985
      9984      9986      9985      9986      9987      9988      9987      9989
      9988      9989      9990      9991      9990      9992      9991      9992
      9993      9994      9993      9995      9994      9995      9996      9997
      9996      9998      9997      9998      9999     10000      9999     10001
     10000     10001     10002     10003     10002     10004     10003     10004
     10005     10006     10005     10007     10006     10007     10008     10009
     10008     10010     10009     10010     10011     10012     10011     10013
     10012     10013     10014     10015     10014     10016     10015     10016
     10017     10018     10017     10019     10018     10019     10020     10021
     10020     10022     10021     10022     10023     10024     10023     10025
     10024     10025     10026     10027     10026     10028     10027     10028
     10029     10030     10029     10031     10030     10031     10032     10033
     10032     10034     10033     10034     10035     10036     10035     10037
     10036     10037     10038     10039     10038     10040     10039     10040
     10041     10042     10041     10043     10042     10043     10044     10045
     10044     10046     10045     10046     10047     10048     10047     10049
     10048     10049     10050     10051     10050     10052     10051     10052
     10053     10054     10053     10055     10054     10055     10056     10057
     10056     10058     10057     10058     10059     10060     10059     10061
     10060     10061     10062     10063     10062     10064     10063     10064
     10065     10066     10065     10067     10066     10067     10068     10069
     10068     10070     10069     10070     10071     10072     10071     10073
     10072     10073     10074     10075     10074     10076     10075     10076
     10077     10078     10077     10079     10078     10079     10080     10081
     10080     10082     10081     10082     10083     10084     10083     10085
     10084     10085     10086     10087     10086     10088     10087     10088
     10089     10090     10089     10091     10090     10091     10092     10093
     10092     10094     10093     10094     10095     10096     10095     10097
     10096     10097     10098     10099     10098     10100     10099     10100
     10101     10102     10101     10103     10102     10103     10104     10105
     10104     10106     10105     10106     10107     10108     10107     10109
     10108     10109     10110     10111     10110     10112     10111     10112
     10113     10114     10113     10115     10114     10115     10116     10117
     10116     10118     10117     10118     10119     10120     10119     10121
     10120     10121     10122     10123     10122     10124     10123     10124
     10125     10126     10125     10127     10126     10127     10128     10129
     10128     10130     10129     10130     10131     10132     10131     10133
     10132     10133     10134     10135     10134     10136     10135     10136
     10137     10138     10137     10139     10138     10139     10140     10141
     10140     10142     10141     10142     10143     10144     10143     10145
     10144     10145     10146     10147     10146     10148     10147     10148
     10149     10150     10149     10151     10150     10151     10152     10153
     10152     10154     10153     10154     10155     10156     10155     10157
     10156     10157     10158     10159     10158     10160     10159     10160
     10161     10162     10161     10163     10162     10163     10164     10165
     10164     10166     10165     10166     10167     10168     10167     10169
     10168     10169     10170     10171     10170     10172     10171     10172
     10173     10174     10173     10175     10174     10175     10176     10177
     10176     10178     10177     10178     10179     10180     10179     10181
     10180     10181     10182     10183     10182     10184     10183     10184
     10185     10186     10185     10187     10186     10187     10188     10189
     10188     10190     10189     10190     10191     10192     10191     10193
     10192     10193     10194     10195     10194     10196     10195     10196
     10197     10198     10197     10199     10198     10199     10200     10201
     10200     10202     10201     10202     10203     10204     10203     10205
     10204     10205     10206     10207     10206     10208     10207     10208
     10209     10210     10209     10211     10210     10211     10212     10213
     10212     10214     10213     10214     10215     10216     10215     10217
     10216     10217     10218     10219     10218     10220     10219     10220
     10221     10222     10221     10223     10222     10223     10224     10225
     10224     10226     10225     10226     10227     10228     10227     10229
     10228     10229     10230     10231     10230     10232     10231     10232
     10233     10234     10233     10235     10234     10235     10236     10237
     10236     10238     10237     10238     10239     10240     10239     10241
     10240     10241     10242     10243     10242     10244     10243     10244
     10245     10246     10245     10247     10246     10247     10248     10249
     10248     10250     10249     10250     10251     10252     10251     10253
     10252     10253     10254     10255     10254     10256     10255     10256
     10257     10258     10257     10259     10258     10259     10260     10261
     10260     10262     10261     10262     10263     10264     10263     10265
     10264     10265     10266     10267     10266     10268     10267     10268
     10269     10270     10269     10271     10270     10271     10272     10273
     10272     10274     10273     10274     10275     10276     10275     10277
     10276     10277     10278     10279     10278     10280     10279     10280
     10281     10282     10281     10283     10282     10283     10284     10285
     10284     10286     10285     10286     10287     10288     10287     10289
     10288     10289     10290     10291     10290     10292     10291     10292
     10293     10294     10293     10295     10294     10295     10296     10297
     10296     10298     10297     10298     10299     10300     10299     10301
     10300     10301     10302     10303     10302     10304     10303     10304
     10305     10306     10305     10307     10306     10307     10308     10309
     10308     10310     10309     10310     10311     10312     10311     10313
     10312     10313     10314     10315     10314     10316     10315     10316
     10317     10318     10317     10319     10318     10319     10320     10321
     10320     10322     10321     10322     10323     10324     10323     10325
     10324     10325     10326     10327     10326     10328     10327     10328
     10329     10330     10329     10331     10330     10331     10332     10333
     10332     10334     10333     10334     10335     10336     10335     10337
     10336     10337     10338     10339     10338     10340     10339     10340
     10341     10342     10341     10343     10342     10343     10344     10345
     10344     10346     10345     10346     10347     10348     10347     10349
     10348     10349     10350     10351     10350     10352     10351     10352
     10353     10354     10353     10355     10354     10355     10356     10357
     10356     10358     10357     10358     10359     10360     10359     10361
     10360     10361     10362     10363     10362     10364     10363     10364
     10365     10366     10365     10367     10366     10367     10368     10369
     10368     10370     10369     10370     10371     10372     10371     10373
     10372     10373     10374     10375     10374     10376     10375     10376
     10377     10378     10377     10379     10378     10379     10380     10381
     10380     10382     10381     10382     10383     10384     10383     10385
     10384     10385     10386     10387     10386     10388     10387     10388
     10389     10390     10389     10391     10390     10391     10392     10393
     10392     10394     10393     10394     10395     10396     10395     10397
     10396     10397     10398     10399     10398     10400     10399     10400
     10401     10402     10401     10403     10402     10403     10404     10405
     10404     10406     10405     10406     10407     10408     10407     10409
     10408     10409     10410     10411     10410     10412     10411     10412
     10413     10414     10413     10415     10414     10415     10416     10417
     10416     10418     10417     10418     10419     10420     10419     10421
     10420     10421     10422     10423     10422     10424     10423     10424
     10425     10426     10425     10427     10426     10427     10428     10429
     10428     10430     10429     10430     10431     10432     10431     10433
     10432     10433     10434     10435     10434     10436     10435     10436
     10437     10438     10437     10439     10438     10439     10440     10441
     10440     10442     10441     10442     10443     10444     10443     10445
     10444     10445     10446     10447     10446     10448     10447     10448
     10449     10450     10449     10451     10450     10451     10452     10453
     10452     10454     10453     10454     10455     10456     10455     10457
     10456     10457     10458     10459     10458     10460     10459     10460
     10461     10462     10461     10463     10462     10463     10464     10465
     10464     10466     10465     10466     10467     10468     10467     10469
     10468     10469     10470     10471     10470     10472     10471     10472
     10473     10474     10473     10475     10474     10475     10476     10477
     10476     10478     10477     10478     10479     10480     10479     10481
     10480     10481     10482     10483     10482     10484     10483     10484
     10485     10486     10485     10487     10486     10487     10488     10489
     10488     10490     10489     10490     10491     10492     10491     10493
     10492     10493     10494     10495     10494     10496     10495     10496
     10497     10498     10497     10499     10498     10499     10500     10501
     10500     10502     10501     10502     10503     10504     10503     10505
     10504     10505     10506     10507     10506     10508     10507     10508
     10509     10510     10509     10511     10510     10511     10512     10513
     10512     10514     10513     10514     10515     10516     10515     10517
     10516     10517     10518     10519     10518     10520     10519     10520
     10521     10522     10521     10523     10522     10523     10524     10525
     10524     10526     10525     10526     10527     10528     10527     10529
     10528     10529     10530     10531     10530     10532     10531     10532
     10533     10534     10533     10535     10534     10535     10536     10537
     10536     10538     10537     10538     10539     10540     10539     10541
     10540     10541     10542     10543     10542     10544     10543     10544
     10545     10546     10545     10547     10546     10547     10548     10549
     10548     10550     10549     10550     10551     10552     10551     10553
     10552     10553     10554     10555     10554     10556     10555     10556
     10557     10558     10557     10559     10558     10559     10560     10561
     10560     10562     10561     10562     10563     10564     10563     10565
     10564     10565     10566     10567     10566     10568     10567     10568
     10569     10570     10569     10571     10570     10571     10572     10573
     10572     10574     10573     10574     10575     10576     10575     10577
     10576     10577     10578     10579     10578     10580     10579     10580
     10581     10582     10581     10583     10582     10583     10584     10585
     10584     10586     10585     10586     10587     10588     10587     10589
     10588     10589     10590     10591     10590     10592     10591     10592
     10593     10594     10593     10595     10594     10595     10596     10597
     10596     10598     10597     10598     10599     10600     10599     10601
     10600     10601     10602     10603     10602     10604     10603     10604
     10605     10606     10605     10607     10606     10607     10608     10609
     10608     10610     10609     10610     10611     10612     10611     10613
     10612     10613     10614     10615     10614     10616     10615     10616
     10617     10618     10617     10619     10618     10619     10620     10621
     10620     10622     10621     10622     10623     10624     10623     10625
     10624     10625     10626     10627     10626     10628     10627     10628
     10629     10630     10629     10631     10630     10631     10632     10633
     10632     10634     10633     10634     10635     10636     10635     10637
     10636     10637     10638     10639     10638     10640     10639     10640
     10641     10642     10641     10643     10642     10643     10644     10645
     10644     10646     10645     10646     10647     10648     10647     10649
     10648     10649     10650     10651     10650     10652     10651     10652
     10653     10654     10653     10655     10654     10655     10656     10657
     10656     10658     10657     10658     10659     10660     10659     10661
     10660     10661     10662     10663     10662     10664     10663     10664
     10665     10666     10665     10667     10666     10667     10668     10669
     10668     10670     10669     10670     10671     10672     10671     10673
     10672     10673     10674     10675     10674     10676     10675     10676
     10677     10678     10677     10679     10678     10679     10680     10681
     10680     10682     10681     10682     10683     10684     10683     10685
     10684     10685     10686     10687     10686     10688     10687     10688
     10689     10690     10689     10691     10690     10691     10692     10693
     10692     10694     10693     10694     10695     10696     10695     10697
     10696     10697     10698     10699     10698     10700     10699     10700
     10701     10702     10701     10703     10702     10703     10704     10705
     10704     10706     10705     10706     10707     10708     10707     10709
     10708     10709     10710     10711     10710     10712     10711     10712
     10713     10714     10713     10715     10714     10715     10716     10717
     10716     10718     10717     10718     10719     10720     10719     10721
     10720     10721     10722     10723     10722     10724     10723     10724
     10725     10726     10725     10727     10726     10727     10728     10729
     10728     10730     10729     10730     10731     10732     10731     10733
     10732     10733     10734     10735     10734     10736     10735     10736
     10737     10738     10737     10739     10738     10739     10740     10741
     10740     10742     10741     10742     10743     10744     10743     10745
     10744     10745     10746     10747     10746     10748     10747     10748
     10749     10750     10749     10751     10750     10751     10752     10753
     10752     10754     10753     10754     10755     10756     10755     10757
     10756     10757     10758     10759     10758     10760     10759     10760
     10761     10762     10761     10763     10762     10763     10764     10765
     10764     10766     10765     10766     10767     10768     10767     10769
     10768     10769     10770     10771     10770     10772     10771     10772
     10773     10774     10773     10775     10774     10775     10776     10777
     10776     10778     10777     10778     10779     10780     10779     10781
     10780     10781     10782     10783     10782     10784     10783     10784
     10785     10786     10785     10787     10786     10787     10788     10789
     10788     10790     10789     10790     10791     10792     10791     10793
     10792     10793     10794     10795     10794     10796     10795     10796
     10797     10798     10797     10799     10798     10799     10800     10801
     10800     10802     10801     10802     10803     10804     10803     10805
     10804     10805     10806     10807     10806     10808     10807     10808
     10809     10810     10809     10811     10810     10811     10812     10813
     10812     10814     10813     10814     10815     10816     10815     10817
     10816     10817     10818     10819     10818     10820     10819     10820
     10821     10822     10821     10823     10822     10823     10824     10825
     10824     10826     10825     10826     10827     10828     10827     10829
     10828     10829     10830     10831     10830     10832     10831     10832
     10833     10834     10833     10835     10834     10835     10836     10837
     10836     10838     10837     10838     10839     10840     10839     10841
     10840     10841     10842     10843     10842     10844     10843     10844
     10845     10846     10845     10847     10846     10847     10848     10849
     10848     10850     10849     10850     10851     10852     10851     10853
     10852     10853     10854     10855     10854     10856     10855     10856
     10857     10858     10857     10859     10858     10859     10860     10861
     10860     10862     10861     10862     10863     10864     10863     10865
     10864     10865     10866     10867     10866     10868     10867     10868
     10869     10870     10869     10871     10870     10871     10872     10873
     10872     10874     10873     10874     10875     10876     10875     10877
     10876     10877     10878     10879     10878     10880     10879     10880
     10881     10882     10881     10883     10882     10883     10884     10885
     10884     10886     10885     10886     10887     10888     10887     10889
     10888     10889     10890     10891     10890     10892     10891     10892
     10893     10894     10893     10895     10894     10895     10896     10897
     10896     10898     10897     10898     10899     10900     10899     10901
     10900     10901     10902     10903     10902     10904     10903     10904
     10905     10906     10905     10907     10906     10907     10908     10909
     10908     10910     10909     10910     10911     10912     10911     10913
     10912     10913     10914     10915     10914     10916     10915     10916
     10917     10918     10917     10919     10918     10919     10920     10921
     10920     10922     10921     10922     10923     10924     10923     10925
     10924     10925     10926     10927     10926     10928     10927     10928
     10929     10930     10929     10931     10930     10931     10932     10933
     10932     10934     10933     10934     10935     10936     10935     10937
     10936     10937     10938     10939     10938     10940     10939     10940
     10941     10942     10941     10943     10942     10943     10944     10945
     10944     10946     10945     10946     10947     10948     10947     10949
     10948     10949     10950     10951     10950     10952     10951     10952
     10953     10954     10953     10955     10954     10955     10956     10957
     10956     10958     10957     10958     10959     10960     10959     10961
     10960     10961     10962     10963     10962     10964     10963     10964
     10965     10966     10965     10967     10966     10967     10968     10969
     10968     10970     10969     10970     10971     10972     10971     10973
     10972     10973     10974     10975     10974     10976     10975     10976
     10977     10978     10977     10979     10978     10979     10980     10981
     10980     10982     10981     10982     10983     10984     10983     10985
     10984     10985     10986     10987     10986     10988     10987     10988
     10989     10990     10989     10991     10990     10991     10992     10993
     10992     10994     10993     10994     10995     10996     10995     10997
     10996     10997     10998     10999     10998     11000     10999     11000
     11001     11002     11001     11003     11002     11003     11004     11005
     11004     11006     11005     11006     11007     11008     11007     11009
     11008     11009     11010     11011     11010     11012     11011     11012
     11013     11014     11013     11015     11014     11015     11016     11017
     11016     11018     11017     11018     11019     11020     11019     11021
     11020     11021     11022     11023     11022     11024     11023     11024
     11025     11026     11025     11027     11026     11027     11028     11029
     11028     11030     11029     11030     11031     11032     11031     11033
     11032     11033     11034     11035     11034     11036     11035     11036
     11037     11038     11037     11039     11038     11039     11040     11041
     11040     11042     11041     11042     11043     11044     11043     11045
     11044     11045     11046     11047     11046     11048     11047     11048
     11049     11050     11049     11051     11050     11051     11052     11053
     11052     11054     11053     11054     11055     11056     11055     11057
     11056     11057     11058     11059     11058     11060     11059     11060
     11061     11062     11061     11063     11062     11063     11064     11065
     11064     11066     11065     11066     11067     11068     11067     11069
     11068     11069     11070     11071     11070     11072     11071     11072
     11073     11074     11073     11075     11074     11075     11076     11077
     11076     11078     11077     11078     11079     11080     11079     11081
     11080     11081     11082     11083     11082     11084     11083     11084
     11085     11086     11085     11087     11086     11087     11088     11089
     11088     11090     11089     11090     11091     11092     11091     11093
     11092     11093     11094     11095     11094     11096     11095     11096
     11097     11098     11097     11099     11098     11099     11100     11101
     11100     11102     11101     11102     11103     11104     11103     11105
     11104     11105     11106     11107     11106     11108     11107     11108
     11109     11110     11109     11111     11110     11111     11112     11113
     11112     11114     11113     11114     11115     11116     11115     11117
     11116     11117     11118     11119     11118     11120     11119     11120
     11121     11122     11121     11123     11122     11123     11124     11125
     11124     11126     11125     11126     11127     11128     11127     11129
     11128     11129     11130     11131     11130     11132     11131     11132
     11133     11134     11133     11135     11134     11135     11136     11137
     11136     11138     11137     11138     11139     11140     11139     11141
     11140     11141     11142     11143     11142     11144     11143     11144
     11145     11146     11145     11147     11146     11147     11148     11149
     11148     11150     11149     11150     11151     11152     11151     11153
     11152     11153     11154     11155     11154     11156     11155     11156
     11157     11158     11157     11159     11158     11159     11160     11161
     11160     11162     11161     11162     11163     11164     11163     11165
     11164     11165     11166     11167     11166     11168     11167     11168
     11169     11170     11169     11171     11170     11171     11172     11173
     11172     11174     11173     11174     11175     11176     11175     11177
     11176     11177     11178     11179     11178     11180     11179     11180
     11181     11182     11181     11183     11182     11183     11184     11185
     11184     11186     11185     11186     11187     11188     11187     11189
     11188     11189     11190     11191     11190     11192     11191     11192
     11193     11194     11193     11195     11194     11195     11196     11197
     11196     11198     11197     11198     11199     11200     11199     11201
     11200     11201     11202     11203     11202     11204     11203     11204
     11205     11206     11205     11207     11206     11207     11208     11209
     11208     11210     11209     11210     11211     11212     11211     11213
     11212     11213     11214     11215     11214     11216     11215     11216
     11217     11218     11217     11219     11218     11219     11220     11221
     11220     11222     11221     11222     11223     11224     11223     11225
     11224     11225     11226     11227     11226     11228     11227     11228
     11229     11230     11229     11231     11230     11231     11232     11233
     11232     11234     11233     11234     11235     11236     11235     11237
     11236     11237     11238     11239     11238     11240     11239     11240
     11241     11242     11241     11243     11242     11243     11244     11245
     11244     11246     11245     11246     11247     11248     11247     11249
     11248     11249     11250     11251     11250     11252     11251     11252
     11253     11254     11253     11255     11254     11255     11256     11257
     11256     11258     11257     11258     11259     11260     11259     11261
     11260     11261     11262     11263     11262     11264     11263     11264
     11265     11266     11265     11267     11266     11267     11268     11269
     11268     11270     11269     11270     11271     11272     11271     11273
     11272     11273     11274     11275     11274     11276     11275     11276
     11277     11278     11277     11279     11278     11279     11280     11281
     11280     11282     11281     11282     11283     11284     11283     11285
     11284     11285     11286     11287     11286     11288     11287     11288
     11289     11290     11289     11291     11290     11291     11292     11293
     11292     11294     11293     11294     11295     11296     11295     11297
     11296     11297     11298     11299     11298     11300     11299     11300
     11301     11302     11301     11303     11302     11303     11304     11305
     11304     11306     11305     11306     11307     11308     11307     11309
     11308     11309     11310     11311     11310     11312     11311     11312
     11313     11314     11313     11315     11314     11315     11316     11317
     11316     11318     11317     11318     11319     11320     11319     11321
     11320     11321     11322     11323     11322     11324     11323     11324
     11325     11326     11325     11327     11326     11327     11328     11329
     11328     11330     11329     11330     11331     11332     11331     11333
     11332     11333     11334     11335     11334     11336     11335     11336
     11337     11338     11337     11339     11338     11339     11340     11341
     11340     11342     11341     11342     11343     11344     11343     11345
     11344     11345     11346     11347     11346     11348     11347     11348
     11349     11350     11349     11351     11350     11351     11352     11353
     11352     11354     11353     11354     11355     11356     11355     11357
     11356     11357     11358     11359     11358     11360     11359     11360
     11361     11362     11361     11363     11362     11363     11364     11365
     11364     11366     11365     11366     11367     11368     11367     11369
     11368     11369     11370     11371     11370     11372     11371     11372
     11373     11374     11373     11375     11374     11375     11376     11377
     11376     11378     11377     11378     11379     11380     11379     11381
     11380     11381     11382     11383     11382     11384     11383     11384
     11385     11386     11385     11387     11386     11387     11388     11389
     11388     11390     11389     11390     11391     11392     11391     11393
     11392     11393     11394     11395     11394     11396     11395     11396
     11397     11398     11397     11399     11398     11399     11400     11401
     11400     11402     11401     11402     11403     11404     11403     11405
     11404     11405     11406     11407     11406     11408     11407     11408
     11409     11410     11409     11411     11410     11411     11412     11413
     11412     11414     11413     11414     11415     11416     11415     11417
     11416     11417     11418     11419     11418     11420     11419     11420
     11421     11422     11421     11423     11422     11423     11424     11425
     11424     11426     11425     11426     11427     11428     11427     11429
     11428     11429     11430     11431     11430     11432     11431     11432
     11433     11434     11433     11435     11434     11435     11436     11437
     11436     11438     11437     11438     11439     11440     11439     11441
     11440     11441     11442     11443     11442     11444     11443     11444
     11445     11446     11445     11447     11446     11447     11448     11449
     11448     11450     11449     11450     11451     11452     11451     11453
     11452     11453     11454     11455     11454     11456     11455     11456
     11457     11458     11457     11459     11458     11459     11460     11461
     11460     11462     11461     11462     11463     11464     11463     11465
     11464     11465     11466     11467     11466     11468     11467     11468
     11469     11470     11469     11471     11470     11471     11472     11473
     11472     11474     11473     11474     11475     11476     11475     11477
     11476     11477     11478     11479     11478     11480     11479     11480
     11481     11482     11481     11483     11482     11483     11484     11485
     11484     11486     11485     11486     11487     11488     11487     11489
     11488     11489     11490     11491     11490     11492     11491     11492
     11493     11494     11493     11495     11494     11495     11496     11497
     11496     11498     11497     11498     11499     11500     11499     11501
     11500     11501     11502     11503     11502     11504     11503     11504
     11505     11506     11505     11507     11506     11507     11508     11509
     11508     11510     11509     11510     11511     11512     11511     11513
     11512     11513     11514     11515     11514     11516     11515     11516
     11517     11518     11517     11519     11518     11519     11520     11521
     11520     11522     11521     11522     11523     11524     11523     11525
     11524     11525     11526     11527     11526     11528     11527     11528
     11529     11530     11529     11531     11530     11531     11532     11533
     11532     11534     11533     11534     11535     11536     11535     11537
     11536     11537     11538     11539     11538     11540     11539     11540
     11541     11542     11541     11543     11542     11543     11544     11545
     11544     11546     11545     11546     11547     11548     11547     11549
     11548     11549     11550     11551     11550     11552     11551     11552
     11553     11554     11553     11555     11554     11555     11556     11557
     11556     11558     11557     11558     11559     11560     11559     11561
     11560     11561     11562     11563     11562     11564     11563     11564
     11565     11566     11565     11567     11566     11567     11568     11569
     11568     11570     11569     11570     11571     11572     11571     11573
     11572     11573     11574     11575     11574     11576     11575     11576
     11577     11578     11577     11579     11578     11579     11580     11581
     11580     11582     11581     11582     11583     11584     11583     11585
     11584     11585     11586     11587     11586     11588     11587     11588
     11589     11590     11589     11591     11590     11591     11592     11593
     11592     11594     11593     11594     11595     11596     11595     11597
     11596     11597     11598     11599     11598     11600     11599     11600
     11601     11602     11601     11603     11602     11603     11604     11605
     11604     11606     11605     11606     11607     11608     11607     11609
     11608     11609     11610     11611     11610     11612     11611     11612
     11613     11614     11613     11615     11614     11615     11616     11617
     11616     11618     11617     11618     11619     11620     11619     11621
     11620     11621     11622     11623     11622     11624     11623     11624
     11625     11626     11625     11627     11626     11627     11628     11629
     11628     11630     11629     11630     11631     11632     11631     11633
     11632     11633     11634     11635     11634     11636     11635     11636
     11637     11638     11637     11639     11638     11639     11640     11641
     11640     11642     11641     11642     11643     11644     11643     11645
     11644     11645     11646     11647     11646     11648     11647     11648
     11649     11650     11649     11651     11650     11651     11652     11653
     11652     11654     11653     11654     11655     11656     11655     11657
     11656     11657     11658     11659     11658     11660     11659     11660
     11661     11662     11661     11663     11662     11663     11664     11665
     11664     11666     11665     11666     11667     11668     11667     11669
     11668     11669     11670     11671     11670     11672     11671     11672
     11673     11674     11673     11675     11674     11675     11676     11677
     11676     11678     11677     11678     11679     11680     11679     11681
     11680     11681     11682     11683     11682     11684     11683     11684
     11685     11686     11685     11687     11686     11687     11688     11689
     11688     11690     11689     11690     11691     11692     11691     11693
     11692     11693     11694     11695     11694     11696     11695     11696
     11697     11698     11697     11699     11698     11699     11700     11701
     11700     11702     11701     11702     11703     11704     11703     11705
     11704     11705     11706     11707     11706     11708     11707     11708
     11709     11710     11709     11711     11710     11711     11712     11713
     11712     11714     11713     11714     11715     11716     11715     11717
     11716     11717     11718     11719     11718     11720     11719     11720
     11721     11722     11721     11723     11722     11723     11724     11725
     11724     11726     11725     11726     11727     11728     11727     11729
     11728     11729     11730     11731     11730     11732     11731     11732
     11733     11734     11733     11735     11734     11735     11736     11737
     11736     11738     11737     11738     11739     11740     11739     11741
     11740     11741     11742     11743     11742     11744     11743     11744
     11745     11746     11745     11747     11746     11747     11748     11749
     11748     11750     11749     11750     11751     11752     11751     11753
     11752     11753     11754     11755     11754     11756     11755     11756
     11757     11758     11757     11759     11758     11759     11760     11761
     11760     11762     11761     11762     11763     11764     11763     11765
     11764     11765     11766     11767     11766     11768     11767     11768
     11769     11770     11769     11771     11770     11771     11772     11773
     11772     11774     11773     11774     11775     11776     11775     11777
     11776     11777     11778     11779     11778     11780     11779     11780
     11781     11782     11781     11783     11782     11783     11784     11785
     11784     11786     11785     11786     11787     11788     11787     11789
     11788     11789     11790     11791     11790     11792     11791     11792
     11793     11794     11793     11795     11794     11795     11796     11797
     11796     11798     11797     11798     11799     11800     11799     11801
     11800     11801     11802     11803     11802     11804     11803     11804
     11805     11806     11805     11807     11806     11807     11808     11809
     11808     11810     11809     11810     11811     11812     11811     11813
     11812     11813     11814     11815     11814     11816     11815     11816
     11817     11818     11817     11819     11818     11819     11820     11821
     11820     11822     11821     11822     11823     11824     11823     11825
     11824     11825     11826     11827     11826     11828     11827     11828
     11829     11830     11829     11831     11830     11831     11832     11833
     11832     11834     11833     11834     11835     11836     11835     11837
     11836     11837     11838     11839     11838     11840     11839     11840
     11841     11842     11841     11843     11842     11843     11844     11845
     11844     11846     11845     11846     11847     11848     11847     11849
     11848     11849     11850     11851     11850     11852     11851     11852
     11853     11854     11853     11855     11854     11855     11856     11857
     11856     11858     11857     11858     11859     11860     11859     11861
     11860     11861     11862     11863     11862     11864     11863     11864
     11865     11866     11865     11867     11866     11867     11868     11869
     11868     11870     11869     11870     11871     11872     11871     11873
     11872     11873     11874     11875     11874     11876     11875     11876
     11877     11878     11877     11879     11878     11879     11880     11881
     11880     11882     11881     11882     11883     11884     11883     11885
     11884     11885     11886     11887     11886     11888     11887     11888
     11889     11890     11889     11891     11890     11891     11892     11893
     11892     11894     11893     11894     11895     11896     11895     11897
     11896     11897     11898     11899     11898     11900     11899     11900
     11901     11902     11901     11903     11902     11903     11904     11905
     11904     11906     11905     11906     11907     11908     11907     11909
     11908     11909     11910     11911     11910     11912     11911     11912
     11913     11914     11913     11915     11914     11915     11916     11917
     11916     11918     11917     11918     11919     11920     11919     11921
     11920     11921     11922     11923     11922     11924     11923     11924
     11925     11926     11925     11927     11926     11927     11928     11929
     11928     11930     11929     11930     11931     11932     11931     11933
     11932     11933     11934     11935     11934     11936     11935     11936
     11937     11938     11937     11939     11938     11939     11940     11941
     11940     11942     11941     11942     11943     11944     11943     11945
     11944     11945     11946     11947     11946     11948     11947     11948
     11949     11950     11949     11951     11950     11951     11952     11953
     11952     11954     11953     11954     11955     11956     11955     11957
     11956     11957     11958     11959     11958     11960     11959     11960
     11961     11962     11961     11963     11962     11963     11964     11965
     11964     11966     11965     11966     11967     11968     11967     11969
     11968     11969     11970     11971     11970     11972     11971     11972
     11973     11974     11973     11975     11974     11975     11976     11977
     11976     11978     11977     11978     11979     11980     11979     11981
     11980     11981     11982     11983     11982     11984     11983     11984
     11985     11986     11985     11987     11986     11987     11988     11989
     11988     11990     11989     11990     11991     11992     11991     11993
     11992     11993     11994     11995     11994     11996     11995     11996
     11997     11998     11997     11999     11998     11999     12000     12001
     12000     12002     12001     12002     12003     12004     12003     12005
     12004     12005     12006     12007     12006     12008     12007     12008
     12009     12010     12009     12011     12010     12011     12012     12013
     12012     12014     12013     12014     12015     12016     12015     12017
     12016     12017     12018     12019     12018     12020     12019     12020
     12021     12022     12021     12023     12022     12023     12024     12025
     12024     12026     12025     12026     12027     12028     12027     12029
     12028     12029     12030     12031     12030     12032     12031     12032
     12033     12034     12033     12035     12034     12035     12036     12037
     12036     12038     12037     12038     12039     12040     12039     12041
     12040     12041     12042     12043     12042     12044     12043     12044
     12045     12046     12045     12047     12046     12047     12048     12049
     12048     12050     12049     12050     12051     12052     12051     12053
     12052     12053     12054     12055     12054     12056     12055     12056
     12057     12058     12057     12059     12058     12059     12060     12061
     12060     12062     12061     12062     12063     12064     12063     12065
     12064     12065     12066     12067     12066     12068     12067     12068
     12069     12070     12069     12071     12070     12071     12072     12073
     12072     12074     12073     12074     12075     12076     12075     12077
     12076     12077     12078     12079     12078     12080     12079     12080
     12081     12082     12081     12083     12082     12083     12084     12085
     12084     12086     12085     12086     12087     12088     12087     12089
     12088     12089     12090     12091     12090     12092     12091     12092
     12093     12094     12093     12095     12094     12095     12096     12097
     12096     12098     12097     12098     12099     12100     12099     12101
     12100     12101     12102     12103     12102     12104     12103     12104
     12105     12106     12105     12107     12106     12107     12108     12109
     12108     12110     12109     12110     12111     12112     12111     12113
     12112     12113     12114     12115     12114     12116     12115     12116
     12117     12118     12117     12119     12118     12119     12120     12121
     12120     12122     12121     12122     12123     12124     12123     12125
     12124     12125     12126     12127     12126     12128     12127     12128
     12129     12130     12129     12131     12130     12131     12132     12133
     12132     12134     12133     12134     12135     12136     12135     12137
     12136     12137     12138     12139     12138     12140     12139     12140
     12141     12142     12141     12143     12142     12143     12144     12145
     12144     12146     12145     12146     12147     12148     12147     12149
     12148     12149     12150     12151     12150     12152     12151     12152
     12153     12154     12153     12155     12154     12155     12156     12157
     12156     12158     12157     12158     12159     12160     12159     12161
     12160     12161     12162     12163     12162     12164     12163     12164
     12165     12166     12165     12167     12166     12167     12168     12169
     12168     12170     12169     12170     12171     12172     12171     12173
     12172     12173     12174     12175     12174     12176     12175     12176
     12177     12178     12177     12179     12178     12179     12180     12181
     12180     12182     12181     12182     12183     12184     12183     12185
     12184     12185     12186     12187     12186     12188     12187     12188
     12189     12190     12189     12191     12190     12191     12192     12193
     12192     12194     12193     12194     12195     12196     12195     12197
     12196     12197     12198     12199     12198     12200     12199     12200
     12201     12202     12201     12203     12202     12203     12204     12205
     12204     12206     12205     12206     12207     12208     12207     12209
     12208     12209     12210     12211     12210     12212     12211     12212
     12213     12214     12213     12215     12214     12215     12216     12217
     12216     12218     12217     12218     12219     12220     12219     12221
     12220     12221     12222     12223     12222     12224     12223     12224
     12225     12226     12225     12227     12226     12227     12228     12229
     12228     12230     12229     12230     12231     12232     12231     12233
     12232     12233     12234     12235     12234     12236     12235     12236
     12237     12238     12237     12239     12238     12239     12240     12241
     12240     12242     12241     12242     12243     12244     12243     12245
     12244     12245     12246     12247     12246     12248     12247     12248
     12249     12250     12249     12251     12250     12251     12252     12253
     12252     12254     12253     12254     12255     12256     12255     12257
     12256     12257     12258     12259     12258     12260     12259     12260
     12261     12262     12261     12263     12262     12263     12264     12265
     12264     12266     12265     12266     12267     12268     12267     12269
     12268     12269     12270     12271     12270     12272     12271     12272
     12273     12274     12273     12275     12274     12275     12276     12277
     12276     12278     12277     12278     12279     12280     12279     12281
     12280     12281     12282     12283     12282     12284     12283     12284
     12285     12286     12285     12287     12286     12287     12288     12289
     12288     12290     12289     12290     12291     12292     12291     12293
     12292     12293     12294     12295     12294     12296     12295     12296
     12297     12298     12297     12299     12298     12299     12300     12301
     12300     12302     12301     12302     12303     12304     12303     12305
     12304     12305     12306     12307     12306     12308     12307     12308
     12309     12310     12309     12311     12310     12311     12312     12313
     12312     12314     12313     12314     12315     12316     12315     12317
     12316     12317     12318     12319     12318     12320     12319     12320
     12321     12322     12321     12323     12322     12323     12324     12325
     12324     12326     12325     12326     12327     12328     12327     12329
     12328     12329     12330     12331     12330     12332     12331     12332
     12333     12334     12333     12335     12334     12335     12336     12337
     12336     12338     12337     12338     12339     12340     12339     12341
     12340     12341     12342     12343     12342     12344     12343     12344
     12345     12346     12345     12347     12346     12347     12348     12349
     12348     12350     12349     12350     12351     12352     12351     12353
     12352     12353     12354     12355     12354     12356     12355     12356
     12357     12358     12357     12359     12358     12359     12360     12361
     12360     12362     12361     12362     12363     12364     12363     12365
     12364     12365     12366     12367     12366     12368     12367     12368
     12369     12370     12369     12371     12370     12371     12372     12373
     12372     12374     12373     12374     12375     12376     12375     12377
     12376     12377     12378     12379     12378     12380     12379     12380
     12381     12382     12381     12383     12382     12383     12384     12385
     12384     12386     12385     12386     12387     12388     12387     12389
     12388     12389     12390     12391     12390     12392     12391     12392
     12393     12394     12393     12395     12394     12395     12396     12397
     12396     12398     12397     12398     12399     12400     12399     12401
     12400     12401     12402     12403     12402     12404     12403     12404
     12405     12406     12405     12407     12406     12407     12408     12409
     12408     12410     12409     12410     12411     12412     12411     12413
     12412     12413     12414     12415     12414     12416     12415     12416
     12417     12418     12417     12419     12418     12419     12420     12421
     12420     12422     12421     12422     12423     12424     12423     12425
     12424     12425     12426     12427     12426     12428     12427     12428
     12429     12430     12429     12431     12430     12431     12432     12433
     12432     12434     12433     12434     12435     12436     12435     12437
     12436     12437     12438     12439     12438     12440     12439     12440
     12441     12442     12441     12443     12442     12443     12444     12445
     12444     12446     12445     12446     12447     12448     12447     12449
     12448     12449     12450     12451     12450     12452     12451     12452
     12453     12454     12453     12455     12454     12455     12456     12457
     12456     12458     12457     12458     12459     12460     12459     12461
     12460     12461     12462     12463     12462     12464     12463     12464
     12465     12466     12465     12467     12466     12467     12468     12469
     12468     12470     12469     12470     12471     12472     12471     12473
     12472     12473     12474     12475     12474     12476     12475     12476
     12477     12478     12477     12479     12478     12479     12480     12481
     12480     12482     12481     12482     12483     12484     12483     12485
     12484     12485     12486     12487     12486     12488     12487     12488
     12489     12490     12489     12491     12490     12491     12492     12493
     12492     12494     12493     12494     12495     12496     12495     12497
     12496     12497     12498     12499     12498     12500     12499     12500
     12501     12502     12501     12503     12502     12503     12504     12505
     12504     12506     12505     12506     12507     12508     12507     12509
     12508     12509     12510     12511     12510     12512     12511     12512
     12513     12514     12513     12515     12514     12515     12516     12517
     12516     12518     12517     12518     12519     12520     12519     12521
     12520     12521     12522     12523     12522     12524     12523     12524
     12525     12526     12525     12527     12526     12527     12528     12529
     12528     12530     12529     12530     12531     12532     12531     12533
     12532     12533     12534     12535     12534     12536     12535     12536
     12537     12538     12537     12539     12538     12539     12540     12541
     12540     12542     12541     12542     12543     12544     12543     12545
     12544     12545     12546     12547     12546     12548     12547     12548
     12549     12550     12549     12551     12550     12551     12552     12553
     12552     12554     12553     12554     12555     12556     12555     12557
     12556     12557     12558     12559     12558     12560     12559     12560
     12561     12562     12561     12563     12562     12563     12564     12565
     12564     12566     12565     12566     12567     12568     12567     12569
     12568     12569     12570     12571     12570     12572     12571     12572
     12573     12574     12573     12575     12574     12575     12576     12577
     12576     12578     12577     12578     12579     12580     12579     12581
     12580     12581     12582     12583     12582     12584     12583     12584
     12585     12586     12585     12587     12586     12587     12588     12589
     12588     12590     12589     12590     12591     12592     12591     12593
     12592     12593     12594     12595     12594     12596     12595     12596
     12597     12598     12597     12599     12598     12599     12600     12601
     12600     12602     12601     12602     12603     12604     12603     12605
     12604     12605     12606     12607     12606     12608     12607     12608
     12609     12610     12609     12611     12610     12611     12612     12613
     12612     12614     12613     12614     12615     12616     12615     12617
     12616     12617     12618     12619     12618     12620     12619     12620
     12621     12622     12621     12623     12622     12623     12624     12625
     12624     12626     12625     12626     12627     12628     12627     12629
     12628     12629     12630     12631     12630     12632     12631     12632
     12633     12634     12633     12635     12634     12635     12636     12637
     12636     12638     12637     12638     12639     12640     12639     12641
     12640     12641     12642     12643     12642     12644     12643     12644
     12645     12646     12645     12647     12646     12647     12648     12649
     12648     12650     12649     12650     12651     12652     12651     12653
     12652     12653     12654     12655     12654     12656     12655     12656
     12657     12658     12657     12659     12658     12659     12660     12661
     12660     12662     12661     12662     12663     12664     12663     12665
     12664     12665     12666     12667     12666     12668     12667     12668
     12669     12670     12669     12671     12670     12671     12672     12673
     12672     12674     12673     12674     12675     12676     12675     12677
     12676     12677     12678     12679     12678     12680     12679     12680
     12681     12682     12681     12683     12682     12683     12684     12685
     12684     12686     12685     12686     12687     12688     12687     12689
     12688     12689     12690     12691     12690     12692     12691     12692
     12693     12694     12693     12695     12694     12695     12696     12697
     12696     12698     12697     12698     12699     12700     12699     12701
     12700     12701     12702     12703     12702     12704     12703     12704
     12705     12706     12705     12707     12706     12707     12708     12709
     12708     12710     12709     12710     12711     12712     12711     12713
     12712     12713     12714     12715     12714     12716     12715     12716
     12717     12718     12717     12719     12718     12719     12720     12721
     12720     12722     12721     12722     12723     12724     12723     12725
     12724     12725     12726     12727     12726     12728     12727     12728
     12729     12730     12729     12731     12730     12731     12732     12733
     12732     12734     12733     12734     12735     12736     12735     12737
     12736     12737     12738     12739     12738     12740     12739     12740
     12741     12742     12741     12743     12742     12743     12744     12745
     12744     12746     12745     12746     12747     12748     12747     12749
     12748     12749     12750     12751     12750     12752     12751     12752
     12753     12754     12753     12755     12754     12755     12756     12757
     12756     12758     12757     12758     12759     12760     12759     12761
     12760     12761     12762     12763     12762     12764     12763     12764
     12765     12766     12765     12767     12766     12767     12768     12769
     12768     12770     12769     12770     12771     12772     12771     12773
     12772     12773     12774     12775     12774     12776     12775     12776
     12777     12778     12777     12779     12778     12779     12780     12781
     12780     12782     12781     12782     12783     12784     12783     12785
     12784     12785     12786     12787     12786     12788     12787     12788
     12789     12790     12789     12791     12790     12791     12792     12793
     12792     12794     12793     12794     12795     12796     12795     12797
     12796     12797     12798     12799     12798     12800     12799     12800
     12801     12802     12801     12803     12802     12803     12804     12805
     12804     12806     12805     12806     12807     12808     12807     12809
     12808     12809     12810     12811     12810     12812     12811     12812
     12813     12814     12813     12815     12814     12815     12816     12817
     12816     12818     12817     12818     12819     12820     12819     12821
     12820     12821     12822     12823     12822     12824     12823     12824
     12825     12826     12825     12827     12826     12827     12828     12829
     12828     12830     12829     12830     12831     12832     12831     12833
     12832     12833     12834     12835     12834     12836     12835     12836
     12837     12838     12837     12839     12838     12839     12840     12841
     12840     12842     12841     12842     12843     12844     12843     12845
     12844     12845     12846     12847     12846     12848     12847     12848
     12849     12850     12849     12851     12850     12851     12852     12853
     12852     12854     12853     12854     12855     12856     12855     12857
     12856     12857     12858     12859     12858     12860     12859     12860
     12861     12862     12861     12863     12862     12863     12864     12865
     12864     12866     12865     12866     12867     12868     12867     12869
     12868     12869     12870     12871     12870     12872     12871     12872
     12873     12874     12873     12875     12874     12875     12876     12877
     12876     12878     12877     12878     12879     12880     12879     12881
     12880     12881     12882     12883     12882     12884     12883     12884
     12885     12886     12885     12887     12886     12887     12888     12889
     12888     12890     12889     12890     12891     12892     12891     12893
     12892     12893     12894     12895     12894     12896     12895     12896
     12897     12898     12897     12899     12898     12899     12900     12901
     12900     12902     12901     12902     12903     12904     12903     12905
     12904     12905     12906     12907     12906     12908     12907     12908
     12909     12910     12909     12911     12910     12911     12912     12913
     12912     12914     12913     12914     12915     12916     12915     12917
     12916     12917     12918     12919     12918     12920     12919     12920
     12921     12922     12921     12923     12922     12923     12924     12925
     12924     12926     12925     12926     12927     12928     12927     12929
     12928     12929     12930     12931     12930     12932     12931     12932
     12933     12934     12933     12935     12934     12935     12936     12937
     12936     12938     12937     12938     12939     12940     12939     12941
     12940     12941     12942     12943     12942     12944     12943     12944
     12945     12946     12945     12947     12946     12947     12948     12949
     12948     12950     12949     12950     12951     12952     12951     12953
     12952     12953     12954     12955     12954     12956     12955     12956
     12957     12958     12957     12959     12958     12959     12960     12961
     12960     12962     12961     12962     12963     12964     12963     12965
     12964     12965     12966     12967     12966     12968     12967     12968
     12969     12970     12969     12971     12970     12971     12972     12973
     12972     12974     12973     12974     12975     12976     12975     12977
     12976     12977     12978     12979     12978     12980     12979     12980
     12981     12982     12981     12983     12982     12983     12984     12985
     12984     12986     12985     12986     12987     12988     12987     12989
     12988     12989     12990     12991     12990     12992     12991     12992
     12993     12994     12993     12995     12994     12995     12996     12997
     12996     12998     12997     12998     12999     13000     12999     13001
     13000     13001     13002     13003     13002     13004     13003     13004
     13005     13006     13005     13007     13006     13007     13008     13009
     13008     13010     13009     13010     13011     13012     13011     13013
     13012     13013     13014     13015     13014     13016     13015     13016
     13017     13018     13017     13019     13018     13019     13020     13021
     13020     13022     13021     13022     13023     13024     13023     13025
     13024     13025     13026     13027     13026     13028     13027     13028
     13029     13030     13029     13031     13030     13031     13032     13033
     13032     13034     13033     13034     13035     13036     13035     13037
     13036     13037     13038     13039     13038     13040     13039     13040
     13041     13042     13041     13043     13042     13043     13044     13045
     13044     13046     13045     13046     13047     13048     13047     13049
     13048     13049     13050     13051     13050     13052     13051     13052
     13053     13054     13053     13055     13054     13055     13056     13057
     13056     13058     13057     13058     13059     13060     13059     13061
     13060     13061     13062     13063     13062     13064     13063     13064
     13065     13066     13065     13067     13066     13067     13068     13069
     13068     13070     13069     13070     13071     13072     13071     13073
     13072     13073     13074     13075     13074     13076     13075     13076
     13077     13078     13077     13079     13078     13079     13080     13081
     13080     13082     13081     13082     13083     13084     13083     13085
     13084     13085     13086     13087     13086     13088     13087     13088
     13089     13090     13089     13091     13090     13091     13092     13093
     13092     13094     13093     13094     13095     13096     13095     13097
     13096     13097     13098     13099     13098     13100     13099     13100
     13101     13102     13101     13103     13102     13103     13104     13105
     13104     13106     13105     13106     13107     13108     13107     13109
     13108     13109     13110     13111     13110     13112     13111     13112
     13113     13114     13113     13115     13114     13115     13116     13117
     13116     13118     13117     13118     13119     13120     13119     13121
     13120     13121     13122     13123     13122     13124     13123     13124
     13125     13126     13125     13127     13126     13127     13128     13129
     13128     13130     13129     13130     13131     13132     13131     13133
     13132     13133     13134     13135     13134     13136     13135     13136
     13137     13138     13137     13139     13138     13139     13140     13141
     13140     13142     13141     13142     13143     13144     13143     13145
     13144     13145     13146     13147     13146     13148     13147     13148
     13149     13150     13149     13151     13150     13151     13152     13153
     13152     13154     13153     13154     13155     13156     13155     13157
     13156     13157     13158     13159     13158     13160     13159     13160
     13161     13162     13161     13163     13162     13163     13164     13165
     13164     13166     13165     13166     13167     13168     13167     13169
     13168     13169     13170     13171     13170     13172     13171     13172
     13173     13174     13173     13175     13174     13175     13176     13177
     13176     13178     13177     13178     13179     13180     13179     13181
     13180     13181     13182     13183     13182     13184     13183     13184
     13185     13186     13185     13187     13186     13187     13188     13189
     13188     13190     13189     13190     13191     13192     13191     13193
     13192     13193     13194     13195     13194     13196     13195     13196
     13197     13198     13197     13199     13198     13199     13200     13201
     13200     13202     13201     13202     13203     13204     13203     13205
     13204     13205     13206     13207     13206     13208     13207     13208
     13209     13210     13209     13211     13210     13211     13212     13213
     13212     13214     13213     13214     13215     13216     13215     13217
     13216     13217     13218     13219     13218     13220     13219     13220
     13221     13222     13221     13223     13222     13223     13224     13225
     13224     13226     13225     13226     13227     13228     13227     13229
     13228     13229     13230     13231     13230     13232     13231     13232
     13233     13234     13233     13235     13234     13235     13236     13237
     13236     13238     13237     13238     13239     13240     13239     13241
     13240     13241     13242     13243     13242     13244     13243     13244
     13245     13246     13245     13247     13246     13247     13248     13249
     13248     13250     13249     13250     13251     13252     13251     13253
     13252     13253     13254     13255     13254     13256     13255     13256
     13257     13258     13257     13259     13258     13259     13260     13261
     13260     13262     13261     13262     13263     13264     13263     13265
     13264     13265     13266     13267     13266     13268     13267     13268
     13269     13270     13269     13271     13270     13271     13272     13273
     13272     13274     13273     13274     13275     13276     13275     13277
     13276     13277     13278     13279     13278     13280     13279     13280
     13281     13282     13281     13283     13282     13283     13284     13285
     13284     13286     13285     13286     13287     13288     13287     13289
     13288     13289     13290     13291     13290     13292     13291     13292
     13293     13294     13293     13295     13294     13295     13296     13297
     13296     13298     13297     13298     13299     13300     13299     13301
     13300     13301     13302     13303     13302     13304     13303     13304
     13305     13306     13305     13307     13306     13307     13308     13309
     13308     13310     13309     13310     13311     13312     13311     13313
     13312     13313     13314     13315     13314     13316     13315     13316
     13317     13318     13317     13319     13318     13319     13320     13321
     13320     13322     13321     13322     13323     13324     13323     13325
     13324     13325     13326     13327     13326     13328     13327     13328
     13329     13330     13329     13331     13330     13331     13332     13333
     13332     13334     13333     13334     13335     13336     13335     13337
     13336     13337     13338     13339     13338     13340     13339     13340
     13341     13342     13341     13343     13342     13343     13344     13345
     13344     13346     13345     13346     13347     13348     13347     13349
     13348     13349     13350     13351     13350     13352     13351     13352
     13353     13354     13353     13355     13354     13355     13356     13357
     13356     13358     13357     13358     13359     13360     13359     13361
     13360     13361     13362     13363     13362     13364     13363     13364
     13365     13366     13365     13367     13366     13367     13368     13369
     13368     13370     13369     13370     13371     13372     13371     13373
     13372     13373     13374     13375     13374     13376     13375     13376
     13377     13378     13377     13379     13378     13379     13380     13381
     13380     13382     13381     13382     13383     13384     13383     13385
     13384     13385     13386     13387     13386     13388     13387     13388
     13389     13390     13389     13391     13390     13391     13392     13393
     13392     13394     13393     13394     13395     13396     13395     13397
     13396     13397     13398     13399     13398     13400     13399     13400
     13401     13402     13401     13403     13402     13403     13404     13405
     13404     13406     13405     13406     13407     13408     13407     13409
     13408     13409     13410     13411     13410     13412     13411     13412
     13413     13414     13413     13415     13414     13415     13416     13417
     13416     13418     13417     13418     13419     13420     13419     13421
     13420     13421     13422     13423     13422     13424     13423     13424
     13425     13426     13425     13427     13426     13427     13428     13429
     13428     13430     13429     13430     13431     13432     13431     13433
     13432     13433     13434     13435     13434     13436     13435     13436
     13437     13438     13437     13439     13438     13439     13440     13441
     13440     13442     13441     13442     13443     13444     13443     13445
     13444     13445     13446     13447     13446     13448     13447     13448
     13449     13450     13449     13451     13450     13451     13452     13453
     13452     13454     13453     13454     13455     13456     13455     13457
     13456     13457     13458     13459     13458     13460     13459     13460
     13461     13462     13461     13463     13462     13463     13464     13465
     13464     13466     13465     13466     13467     13468     13467     13469
     13468     13469     13470     13471     13470     13472     13471     13472
     13473     13474     13473     13475     13474     13475     13476     13477
     13476     13478     13477     13478     13479     13480     13479     13481
     13480     13481     13482     13483     13482     13484     13483     13484
     13485     13486     13485     13487     13486     13487     13488     13489
     13488     13490     13489     13490     13491     13492     13491     13493
     13492     13493     13494     13495     13494     13496     13495     13496
     13497     13498     13497     13499     13498     13499     13500     13501
     13500     13502     13501     13502     13503     13504     13503     13505
     13504     13505     13506     13507     13506     13508     13507     13508
     13509     13510     13509     13511     13510     13511     13512     13513
     13512     13514     13513     13514     13515     13516     13515     13517
     13516     13517     13518     13519     13518     13520     13519     13520
     13521     13522     13521     13523     13522     13523     13524     13525
     13524     13526     13525     13526     13527     13528     13527     13529
     13528     13529     13530     13531     13530     13532     13531     13532
     13533     13534     13533     13535     13534     13535     13536     13537
     13536     13538     13537     13538     13539     13540     13539     13541
     13540     13541     13542     13543     13542     13544     13543     13544
     13545     13546     13545     13547     13546     13547     13548     13549
     13548     13550     13549     13550     13551     13552     13551     13553
     13552     13553     13554     13555     13554     13556     13555     13556
     13557     13558     13557     13559     13558     13559     13560     13561
     13560     13562     13561     13562     13563     13564     13563     13565
     13564     13565     13566     13567     13566     13568     13567     13568
     13569     13570     13569     13571     13570     13571     13572     13573
     13572     13574     13573     13574     13575     13576     13575     13577
     13576     13577     13578     13579     13578     13580     13579     13580
     13581     13582     13581     13583     13582     13583     13584     13585
     13584     13586     13585     13586     13587     13588     13587     13589
     13588     13589     13590     13591     13590     13592     13591     13592
     13593     13594     13593     13595     13594     13595     13596     13597
     13596     13598     13597     13598     13599     13600     13599     13601
     13600     13601     13602     13603     13602     13604     13603     13604
     13605     13606     13605     13607     13606     13607     13608     13609
     13608     13610     13609     13610     13611     13612     13611     13613
     13612     13613     13614     13615     13614     13616     13615     13616
     13617     13618     13617     13619     13618     13619     13620     13621
     13620     13622     13621     13622     13623     13624     13623     13625
     13624     13625     13626     13627     13626     13628     13627     13628
     13629     13630     13629     13631     13630     13631     13632     13633
     13632     13634     13633     13634     13635     13636     13635     13637
     13636     13637     13638     13639     13638     13640     13639     13640
     13641     13642     13641     13643     13642     13643     13644     13645
     13644     13646     13645     13646     13647     13648     13647     13649
     13648     13649     13650     13651     13650     13652     13651     13652
     13653     13654     13653     13655     13654     13655     13656     13657
     13656     13658     13657     13658     13659     13660     13659     13661
     13660     13661     13662     13663     13662     13664     13663     13664
     13665     13666     13665     13667     13666     13667     13668     13669
     13668     13670     13669     13670     13671     13672     13671     13673
     13672     13673     13674     13675     13674     13676     13675     13676
     13677     13678     13677     13679     13678     13679     13680     13681
     13680     13682     13681     13682     13683     13684     13683     13685
     13684     13685     13686     13687     13686     13688     13687     13688
     13689     13690     13689     13691     13690     13691     13692     13693
     13692     13694     13693     13694     13695     13696     13695     13697
     13696     13697     13698     13699     13698     13700     13699     13700
     13701     13702     13701     13703     13702     13703     13704     13705
     13704     13706     13705     13706     13707     13708     13707     13709
     13708     13709     13710     13711     13710     13712     13711     13712
     13713     13714     13713     13715     13714     13715     13716     13717
     13716     13718     13717     13718     13719     13720     13719     13721
     13720     13721     13722     13723     13722     13724     13723     13724
     13725     13726     13725     13727     13726     13727     13728     13729
     13728     13730     13729     13730     13731     13732     13731     13733
     13732     13733     13734     13735     13734     13736     13735     13736
     13737     13738     13737     13739     13738     13739     13740     13741
     13740     13742     13741     13742     13743     13744     13743     13745
     13744     13745     13746     13747     13746     13748     13747     13748
     13749     13750     13749     13751     13750     13751     13752     13753
     13752     13754     13753     13754     13755     13756     13755     13757
     13756     13757     13758     13759     13758     13760     13759     13760
     13761     13762     13761     13763     13762     13763     13764     13765
     13764     13766     13765     13766     13767     13768     13767     13769
     13768     13769     13770     13771     13770     13772     13771     13772
     13773     13774     13773     13775     13774     13775     13776     13777
     13776     13778     13777     13778     13779     13780     13779     13781
     13780     13781     13782     13783     13782     13784     13783     13784
     13785     13786     13785     13787     13786     13787     13788     13789
     13788     13790     13789     13790     13791     13792     13791     13793
     13792     13793     13794     13795     13794     13796     13795     13796
     13797     13798     13797     13799     13798     13799     13800     13801
     13800     13802     13801     13802     13803     13804     13803     13805
     13804     13805     13806     13807     13806     13808     13807     13808
     13809     13810     13809     13811     13810     13811     13812     13813
     13812     13814     13813     13814     13815     13816     13815     13817
     13816     13817     13818     13819     13818     13820     13819     13820
     13821     13822     13821     13823     13822     13823     13824     13825
     13824     13826     13825     13826     13827     13828     13827     13829
     13828     13829     13830     13831     13830     13832     13831     13832
     13833     13834     13833     13835     13834     13835     13836     13837
     13836     13838     13837     13838     13839     13840     13839     13841
     13840     13841     13842     13843     13842     13844     13843     13844
     13845     13846     13845     13847     13846     13847     13848     13849
     13848     13850     13849     13850     13851     13852     13851     13853
     13852     13853     13854     13855     13854     13856     13855     13856
     13857     13858     13857     13859     13858     13859     13860     13861
     13860     13862     13861     13862     13863     13864     13863     13865
     13864     13865     13866     13867     13866     13868     13867     13868
     13869     13870     13869     13871     13870     13871     13872     13873
     13872     13874     13873     13874     13875     13876     13875     13877
     13876     13877     13878     13879     13878     13880     13879     13880
     13881     13882     13881     13883     13882     13883     13884     13885
     13884     13886     13885     13886     13887     13888     13887     13889
     13888     13889     13890     13891     13890     13892     13891     13892
     13893     13894     13893     13895     13894     13895     13896     13897
     13896     13898     13897     13898     13899     13900     13899     13901
     13900     13901     13902     13903     13902     13904     13903     13904
     13905     13906     13905     13907     13906     13907     13908     13909
     13908     13910     13909     13910     13911     13912     13911     13913
     13912     13913     13914     13915     13914     13916     13915     13916
     13917     13918     13917     13919     13918     13919     13920     13921
     13920     13922     13921     13922     13923     13924     13923     13925
     13924     13925     13926     13927     13926     13928     13927     13928
     13929     13930     13929     13931     13930     13931     13932     13933
     13932     13934     13933     13934     13935     13936     13935     13937
     13936     13937     13938     13939     13938     13940     13939     13940
     13941     13942     13941     13943     13942     13943     13944     13945
     13944     13946     13945     13946     13947     13948     13947     13949
     13948     13949     13950     13951     13950     13952     13951     13952
     13953     13954     13953     13955     13954     13955     13956     13957
     13956     13958     13957     13958     13959     13960     13959     13961
     13960     13961     13962     13963     13962     13964     13963     13964
     13965     13966     13965     13967     13966     13967     13968     13969
     13968     13970     13969     13970     13971     13972     13971     13973
     13972     13973     13974     13975     13974     13976     13975     13976
     13977     13978     13977     13979     13978     13979     13980     13981
     13980     13982     13981     13982     13983     13984     13983     13985
     13984     13985     13986     13987     13986     13988     13987     13988
     13989     13990     13989     13991     13990     13991     13992     13993
     13992     13994     13993     13994     13995     13996     13995     13997
     13996     13997     13998     13999     13998     14000     13999     14000
     14001     14002     14001     14003     14002     14003     14004     14005
     14004     14006     14005     14006     14007     14008     14007     14009
     14008     14009     14010     14011     14010     14012     14011     14012
     14013     14014     14013     14015     14014     14015     14016     14017
     14016     14018     14017     14018     14019     14020     14019     14021
     14020     14021     14022     14023     14022     14024     14023     14024
     14025     14026     14025     14027     14026     14027     14028     14029
     14028     14030     14029     14030     14031     14032     14031     14033
     14032     14033     14034     14035     14034     14036     14035     14036
     14037     14038     14037     14039     14038     14039     14040     14041
     14040     14042     14041     14042     14043     14044     14043     14045
     14044     14045     14046     14047     14046     14048     14047     14048
     14049     14050     14049     14051     14050     14051     14052     14053
     14052     14054     14053     14054     14055     14056     14055     14057
     14056     14057     14058     14059     14058     14060     14059     14060
     14061     14062     14061     14063     14062     14063     14064     14065
     14064     14066     14065     14066     14067     14068     14067     14069
     14068     14069     14070     14071     14070     14072     14071     14072
     14073     14074     14073     14075     14074     14075     14076     14077
     14076     14078     14077     14078     14079     14080     14079     14081
     14080     14081     14082     14083     14082     14084     14083     14084
     14085     14086     14085     14087     14086     14087     14088     14089
     14088     14090     14089     14090     14091     14092     14091     14093
     14092     14093     14094     14095     14094     14096     14095     14096
     14097     14098     14097     14099     14098     14099     14100     14101
     14100     14102     14101     14102     14103     14104     14103     14105
     14104     14105     14106     14107     14106     14108     14107     14108
     14109     14110     14109     14111     14110     14111     14112     14113
     14112     14114     14113     14114     14115     14116     14115     14117
     14116     14117     14118     14119     14118     14120     14119     14120
     14121     14122     14121     14123     14122     14123     14124     14125
     14124     14126     14125     14126     14127     14128     14127     14129
     14128     14129     14130     14131     14130     14132     14131     14132
     14133     14134     14133     14135     14134     14135     14136     14137
     14136     14138     14137     14138     14139     14140     14139     14141
     14140     14141     14142     14143     14142     14144     14143     14144
     14145     14146     14145     14147     14146     14147     14148     14149
     14148     14150     14149     14150     14151     14152     14151     14153
     14152     14153     14154     14155     14154     14156     14155     14156
     14157     14158     14157     14159     14158     14159     14160     14161
     14160     14162     14161     14162     14163     14164     14163     14165
     14164     14165     14166     14167     14166     14168     14167     14168
     14169     14170     14169     14171     14170     14171     14172     14173
     14172     14174     14173     14174     14175     14176     14175     14177
     14176     14177     14178     14179     14178     14180     14179     14180
     14181     14182     14181     14183     14182     14183     14184     14185
     14184     14186     14185     14186     14187     14188     14187     14189
     14188     14189     14190     14191     14190     14192     14191     14192
     14193     14194     14193     14195     14194     14195     14196     14197
     14196     14198     14197     14198     14199     14200     14199     14201
     14200     14201     14202     14203     14202     14204     14203     14204
     14205     14206     14205     14207     14206     14207     14208     14209
     14208     14210     14209     14210     14211     14212     14211     14213
     14212     14213     14214     14215     14214     14216     14215     14216
     14217     14218     14217     14219     14218     14219     14220     14221
     14220     14222     14221     14222     14223     14224     14223     14225
     14224     14225     14226     14227     14226     14228     14227     14228
     14229     14230     14229     14231     14230     14231     14232     14233
     14232     14234     14233     14234     14235     14236     14235     14237
     14236     14237     14238     14239     14238     14240     14239     14240
     14241     14242     14241     14243     14242     14243     14244     14245
     14244     14246     14245     14246     14247     14248     14247     14249
     14248     14249     14250     14251     14250     14252     14251     14252
     14253     14254     14253     14255     14254     14255     14256     14257
     14256     14258     14257     14258     14259     14260     14259     14261
     14260     14261     14262     14263     14262     14264     14263     14264
     14265     14266     14265     14267     14266     14267     14268     14269
     14268     14270     14269     14270     14271     14272     14271     14273
     14272     14273     14274     14275     14274     14276     14275     14276
     14277     14278     14277     14279     14278     14279     14280     14281
     14280     14282     14281     14282     14283     14284     14283     14285
     14284     14285     14286     14287     14286     14288     14287     14288
     14289     14290     14289     14291     14290     14291     14292     14293
     14292     14294     14293     14294     14295     14296     14295     14297
     14296     14297     14298     14299     14298     14300     14299     14300
     14301     14302     14301     14303     14302     14303     14304     14305
     14304     14306     14305     14306     14307     14308     14307     14309
     14308     14309     14310     14311     14310     14312     14311     14312
     14313     14314     14313     14315     14314     14315     14316     14317
     14316     14318     14317     14318     14319     14320     14319     14321
     14320     14321     14322     14323     14322     14324     14323     14324
     14325     14326     14325     14327     14326     14327     14328     14329
     14328     14330     14329     14330     14331     14332     14331     14333
     14332     14333     14334     14335     14334     14336     14335     14336
     14337     14338     14337     14339     14338     14339     14340     14341
     14340     14342     14341     14342     14343     14344     14343     14345
     14344     14345     14346     14347     14346     14348     14347     14348
     14349     14350     14349     14351     14350     14351     14352     14353
     14352     14354     14353     14354     14355     14356     14355     14357
     14356     14357     14358     14359     14358     14360     14359     14360
     14361     14362     14361     14363     14362     14363     14364     14365
     14364     14366     14365     14366     14367     14368     14367     14369
     14368     14369     14370     14371     14370     14372     14371     14372
     14373     14374     14373     14375     14374     14375     14376     14377
     14376     14378     14377     14378     14379     14380     14379     14381
     14380     14381     14382     14383     14382     14384     14383     14384
     14385     14386     14385     14387     14386     14387     14388     14389
     14388     14390     14389     14390     14391     14392     14391     14393
     14392     14393     14394     14395     14394     14396     14395     14396
     14397     14398     14397     14399     14398     14399     14400     14401
     14400     14402     14401     14402     14403     14404     14403     14405
     14404     14405     14406     14407     14406     14408     14407     14408
     14409     14410     14409     14411     14410     14411     14412     14413
     14412     14414     14413     14414     14415     14416     14415     14417
     14416     14417     14418     14419     14418     14420     14419     14420
     14421     14422     14421     14423     14422     14423     14424     14425
     14424     14426     14425     14426     14427     14428     14427     14429
     14428     14429     14430     14431     14430     14432     14431     14432
     14433     14434     14433     14435     14434     14435     14436     14437
     14436     14438     14437     14438     14439     14440     14439     14441
     14440     14441     14442     14443     14442     14444     14443     14444
     14445     14446     14445     14447     14446     14447     14448     14449
     14448     14450     14449     14450     14451     14452     14451     14453
     14452     14453     14454     14455     14454     14456     14455     14456
     14457     14458     14457     14459     14458     14459     14460     14461
     14460     14462     14461     14462     14463     14464     14463     14465
     14464     14465     14466     14467     14466     14468     14467     14468
     14469     14470     14469     14471     14470     14471     14472     14473
     14472     14474     14473     14474     14475     14476     14475     14477
     14476     14477     14478     14479     14478     14480     14479     14480
     14481     14482     14481     14483     14482     14483     14484     14485
     14484     14486     14485     14486     14487     14488     14487     14489
     14488     14489     14490     14491     14490     14492     14491     14492
     14493     14494     14493     14495     14494     14495     14496     14497
     14496     14498     14497     14498     14499     14500     14499     14501
     14500     14501     14502     14503     14502     14504     14503     14504
     14505     14506     14505     14507     14506     14507     14508     14509
     14508     14510     14509     14510     14511     14512     14511     14513
     14512     14513     14514     14515     14514     14516     14515     14516
     14517     14518     14517     14519     14518     14519     14520     14521
     14520     14522     14521     14522     14523     14524     14523     14525
     14524     14525     14526     14527     14526     14528     14527     14528
     14529     14530     14529     14531     14530     14531     14532     14533
     14532     14534     14533     14534     14535     14536     14535     14537
     14536     14537     14538     14539     14538     14540     14539     14540
     14541     14542     14541     14543     14542     14543     14544     14545
     14544     14546     14545     14546     14547     14548     14547     14549
     14548     14549     14550     14551     14550     14552     14551     14552
     14553     14554     14553     14555     14554     14555     14556     14557
     14556     14558     14557     14558     14559     14560     14559     14561
     14560     14561     14562     14563     14562     14564     14563     14564
     14565     14566     14565     14567     14566     14567     14568     14569
     14568     14570     14569     14570     14571     14572     14571     14573
     14572     14573     14574     14575     14574     14576     14575     14576
     14577     14578     14577     14579     14578     14579     14580     14581
     14580     14582     14581     14582     14583     14584     14583     14585
     14584     14585     14586     14587     14586     14588     14587     14588
     14589     14590     14589     14591     14590     14591     14592     14593
     14592     14594     14593     14594     14595     14596     14595     14597
     14596     14597     14598     14599     14598     14600     14599     14600
     14601     14602     14601     14603     14602     14603     14604     14605
     14604     14606     14605     14606     14607     14608     14607     14609
     14608     14609     14610     14611     14610     14612     14611     14612
     14613     14614     14613     14615     14614     14615     14616     14617
     14616     14618     14617     14618     14619     14620     14619     14621
     14620     14621     14622     14623     14622     14624     14623     14624
     14625     14626     14625     14627     14626     14627     14628     14629
     14628     14630     14629     14630     14631     14632     14631     14633
     14632     14633     14634     14635     14634     14636     14635     14636
     14637     14638     14637     14639     14638     14639     14640     14641
     14640     14642     14641     14642     14643     14644     14643     14645
     14644     14645     14646     14647     14646     14648     14647     14648
     14649     14650     14649     14651     14650     14651     14652     14653
     14652     14654     14653     14654     14655     14656     14655     14657
     14656     14657     14658     14659     14658     14660     14659     14660
     14661     14662     14661     14663     14662     14663     14664     14665
     14664     14666     14665     14666     14667     14668     14667     14669
     14668     14669     14670     14671     14670     14672     14671     14672
     14673     14674     14673     14675     14674     14675     14676     14677
     14676     14678     14677     14678     14679     14680     14679     14681
     14680     14681     14682     14683     14682     14684     14683     14684
     14685     14686     14685     14687     14686     14687     14688     14689
     14688     14690     14689     14690     14691     14692     14691     14693
     14692     14693     14694     14695     14694     14696     14695     14696
     14697     14698     14697     14699     14698     14699     14700     14701
     14700     14702     14701     14702     14703     14704     14703     14705
     14704     14705     14706     14707     14706     14708     14707     14708
     14709     14710     14709     14711     14710     14711     14712     14713
     14712     14714     14713     14714     14715     14716     14715     14717
     14716     14717     14718     14719     14718     14720     14719     14720
     14721     14722     14721     14723     14722     14723     14724     14725
     14724     14726     14725     14726     14727     14728     14727     14729
     14728     14729     14730     14731     14730     14732     14731     14732
     14733     14734     14733     14735     14734     14735     14736     14737
     14736     14738     14737     14738     14739     14740     14739     14741
     14740     14741     14742     14743     14742     14744     14743     14744
     14745     14746     14745     14747     14746     14747     14748     14749
     14748     14750     14749     14750     14751     14752     14751     14753
     14752     14753     14754     14755     14754     14756     14755     14756
     14757     14758     14757     14759     14758     14759     14760     14761
     14760     14762     14761     14762     14763     14764     14763     14765
     14764     14765     14766     14767     14766     14768     14767     14768
     14769     14770     14769     14771     14770     14771     14772     14773
     14772     14774     14773     14774     14775     14776     14775     14777
     14776     14777     14778     14779     14778     14780     14779     14780
     14781     14782     14781     14783     14782     14783     14784     14785
     14784     14786     14785     14786     14787     14788     14787     14789
     14788     14789     14790     14791     14790     14792     14791     14792
     14793     14794     14793     14795     14794     14795     14796     14797
     14796     14798     14797     14798     14799     14800     14799     14801
     14800     14801     14802     14803     14802     14804     14803     14804
     14805     14806     14805     14807     14806     14807     14808     14809
     14808     14810     14809     14810     14811     14812     14811     14813
     14812     14813     14814     14815     14814     14816     14815     14816
     14817     14818     14817     14819     14818     14819     14820     14821
     14820     14822     14821     14822     14823     14824     14823     14825
     14824     14825     14826     14827     14826     14828     14827     14828
     14829     14830     14829     14831     14830     14831     14832     14833
     14832     14834     14833     14834     14835     14836     14835     14837
     14836     14837     14838     14839     14838     14840     14839     14840
     14841     14842     14841     14843     14842     14843     14844     14845
     14844     14846     14845     14846     14847     14848     14847     14849
     14848     14849     14850     14851     14850     14852     14851     14852
     14853     14854     14853     14855     14854     14855     14856     14857
     14856     14858     14857     14858     14859     14860     14859     14861
     14860     14861     14862     14863     14862     14864     14863     14864
     14865     14866     14865     14867     14866     14867     14868     14869
     14868     14870     14869     14870     14871     14872     14871     14873
     14872     14873     14874     14875     14874     14876     14875     14876
     14877     14878     14877     14879     14878     14879     14880     14881
     14880     14882     14881     14882     14883     14884     14883     14885
     14884     14885     14886     14887     14886     14888     14887     14888
     14889     14890     14889     14891     14890     14891     14892     14893
     14892     14894     14893     14894     14895     14896     14895     14897
     14896     14897     14898     14899     14898     14900     14899     14900
     14901     14902     14901     14903     14902     14903     14904     14905
     14904     14906     14905     14906     14907     14908     14907     14909
     14908     14909     14910     14911     14910     14912     14911     14912
     14913     14914     14913     14915     14914     14915     14916     14917
     14916     14918     14917     14918     14919     14920     14919     14921
     14920     14921     14922     14923     14922     14924     14923     14924
     14925     14926     14925     14927     14926     14927     14928     14929
     14928     14930     14929     14930     14931     14932     14931     14933
     14932     14933     14934     14935     14934     14936     14935     14936
     14937     14938     14937     14939     14938     14939     14940     14941
     14940     14942     14941     14942     14943     14944     14943     14945
     14944     14945     14946     14947     14946     14948     14947     14948
     14949     14950     14949     14951     14950     14951     14952     14953
     14952     14954     14953     14954     14955     14956     14955     14957
     14956     14957     14958     14959     14958     14960     14959     14960
     14961     14962     14961     14963     14962     14963     14964     14965
     14964     14966     14965     14966     14967     14968     14967     14969
     14968     14969     14970     14971     14970     14972     14971     14972
     14973     14974     14973     14975     14974     14975     14976     14977
     14976     14978     14977     14978     14979     14980     14979     14981
     14980     14981     14982     14983     14982     14984     14983     14984
     14985     14986     14985     14987     14986     14987     14988     14989
     14988     14990     14989     14990     14991     14992     14991     14993
     14992     14993     14994     14995     14994     14996     14995     14996
     14997     14998     14997     14999     14998     14999     15000     15001
     15000     15002     15001     15002     15003     15004     15003     15005
     15004     15005     15006     15007     15006     15008     15007     15008
     15009     15010     15009     15011     15010     15011     15012     15013
     15012     15014     15013     15014     15015     15016     15015     15017
     15016     15017     15018     15019     15018     15020     15019     15020
     15021     15022     15021     15023     15022     15023     15024     15025
     15024     15026     15025     15026     15027     15028     15027     15029
     15028     15029     15030     15031     15030     15032     15031     15032
     15033     15034     15033     15035     15034     15035     15036     15037
     15036     15038     15037     15038     15039     15040     15039     15041
     15040     15041     15042     15043     15042     15044     15043     15044
     15045     15046     15045     15047     15046     15047     15048     15049
     15048     15050     15049     15050     15051     15052     15051     15053
     15052     15053     15054     15055     15054     15056     15055     15056
     15057     15058     15057     15059     15058     15059     15060     15061
     15060     15062     15061     15062     15063     15064     15063     15065
     15064     15065     15066     15067     15066     15068     15067     15068
     15069     15070     15069     15071     15070     15071     15072     15073
     15072     15074     15073     15074     15075     15076     15075     15077
     15076     15077     15078     15079     15078     15080     15079     15080
     15081     15082     15081     15083     15082     15083     15084     15085
     15084     15086     15085     15086     15087     15088     15087     15089
     15088     15089     15090     15091     15090     15092     15091     15092
     15093     15094     15093     15095     15094     15095     15096     15097
     15096     15098     15097     15098     15099     15100     15099     15101
     15100     15101     15102     15103     15102     15104     15103     15104
     15105     15106     15105     15107     15106     15107     15108     15109
     15108     15110     15109     15110     15111     15112     15111     15113
     15112     15113     15114     15115     15114     15116     15115     15116
     15117     15118     15117     15119     15118     15119     15120     15121
     15120     15122     15121     15122     15123     15124     15123     15125
     15124     15125     15126     15127     15126     15128     15127     15128
     15129     15130     15129     15131     15130     15131     15132     15133
     15132     15134     15133     15134     15135     15136     15135     15137
     15136     15137     15138     15139     15138     15140     15139     15140
     15141     15142     15141     15143     15142     15143     15144     15145
     15144     15146     15145     15146     15147     15148     15147     15149
     15148     15149     15150     15151     15150     15152     15151     15152
     15153     15154     15153     15155     15154     15155     15156     15157
     15156     15158     15157     15158     15159     15160     15159     15161
     15160     15161     15162     15163     15162     15164     15163     15164
     15165     15166     15165     15167     15166     15167     15168     15169
     15168     15170     15169     15170     15171     15172     15171     15173
     15172     15173     15174     15175     15174     15176     15175     15176
     15177     15178     15177     15179     15178     15179     15180     15181
     15180     15182     15181     15182     15183     15184     15183     15185
     15184     15185     15186     15187     15186     15188     15187     15188
     15189     15190     15189     15191     15190     15191     15192     15193
     15192     15194     15193     15194     15195     15196     15195     15197
     15196     15197     15198     15199     15198     15200     15199     15200
     15201     15202     15201     15203     15202     15203     15204     15205
     15204     15206     15205     15206     15207     15208     15207     15209
     15208     15209     15210     15211     15210     15212     15211     15212
     15213     15214     15213     15215     15214     15215     15216     15217
     15216     15218     15217     15218     15219     15220     15219     15221
     15220     15221     15222     15223     15222     15224     15223     15224
     15225     15226     15225     15227     15226     15227     15228     15229
     15228     15230     15229     15230     15231     15232     15231     15233
     15232     15233     15234     15235     15234     15236     15235     15236
     15237     15238     15237     15239     15238     15239     15240     15241
     15240     15242     15241     15242     15243     15244     15243     15245
     15244     15245     15246     15247     15246     15248     15247     15248
     15249     15250     15249     15251     15250     15251     15252     15253
     15252     15254     15253     15254     15255     15256     15255     15257
     15256     15257     15258     15259     15258     15260     15259     15260
     15261     15262     15261     15263     15262     15263     15264     15265
     15264     15266     15265     15266     15267     15268     15267     15269
     15268     15269     15270     15271     15270     15272     15271     15272
     15273     15274     15273     15275     15274     15275     15276     15277
     15276     15278     15277     15278     15279     15280     15279     15281
     15280     15281     15282     15283     15282     15284     15283     15284
     15285     15286     15285     15287     15286     15287     15288     15289
     15288     15290     15289     15290     15291     15292     15291     15293
     15292     15293     15294     15295     15294     15296     15295     15296
     15297     15298     15297     15299     15298     15299     15300     15301
     15300     15302     15301     15302     15303     15304     15303     15305
     15304     15305     15306     15307     15306     15308     15307     15308
     15309     15310     15309     15311     15310     15311     15312     15313
     15312     15314     15313     15314     15315     15316     15315     15317
     15316     15317     15318     15319     15318     15320     15319     15320
     15321     15322     15321     15323     15322     15323     15324     15325
     15324     15326     15325     15326     15327     15328     15327     15329
     15328     15329     15330     15331     15330     15332     15331     15332
     15333     15334     15333     15335     15334     15335     15336     15337
     15336     15338     15337     15338     15339     15340     15339     15341
     15340     15341     15342     15343     15342     15344     15343     15344
     15345     15346     15345     15347     15346     15347     15348     15349
     15348     15350     15349     15350     15351     15352     15351     15353
     15352     15353     15354     15355     15354     15356     15355     15356
     15357     15358     15357     15359     15358     15359     15360     15361
     15360     15362     15361     15362     15363     15364     15363     15365
     15364     15365     15366     15367     15366     15368     15367     15368
     15369     15370     15369     15371     15370     15371     15372     15373
     15372     15374     15373     15374     15375     15376     15375     15377
     15376     15377     15378     15379     15378     15380     15379     15380
     15381     15382     15381     15383     15382     15383     15384     15385
     15384     15386     15385     15386     15387     15388     15387     15389
     15388     15389     15390     15391     15390     15392     15391     15392
     15393     15394     15393     15395     15394     15395     15396     15397
     15396     15398     15397     15398     15399     15400     15399     15401
     15400     15401     15402     15403     15402     15404     15403     15404
     15405     15406     15405     15407     15406     15407     15408     15409
     15408     15410     15409     15410     15411     15412     15411     15413
     15412     15413     15414     15415     15414     15416     15415     15416
     15417     15418     15417     15419     15418     15419     15420     15421
     15420     15422     15421     15422     15423     15424     15423     15425
     15424     15425     15426     15427     15426     15428     15427     15428
     15429     15430     15429     15431     15430     15431     15432     15433
     15432     15434     15433     15434     15435     15436     15435     15437
     15436     15437     15438     15439     15438     15440     15439     15440
     15441     15442     15441     15443     15442     15443     15444     15445
     15444     15446     15445     15446     15447     15448     15447     15449
     15448     15449     15450     15451     15450     15452     15451     15452
     15453     15454     15453     15455     15454     15455     15456     15457
     15456     15458     15457     15458     15459     15460     15459     15461
     15460     15461     15462     15463     15462     15464     15463     15464
     15465     15466     15465     15467     15466     15467     15468     15469
     15468     15470     15469     15470     15471     15472     15471     15473
     15472     15473     15474     15475     15474     15476     15475     15476
     15477     15478     15477     15479     15478     15479     15480     15481
     15480     15482     15481     15482     15483     15484     15483     15485
     15484     15485     15486     15487     15486     15488     15487     15488
     15489     15490     15489     15491     15490     15491     15492     15493
     15492     15494     15493     15494     15495     15496     15495     15497
     15496     15497     15498     15499     15498     15500     15499     15500
     15501     15502     15501     15503     15502     15503     15504     15505
     15504     15506     15505     15506     15507     15508     15507     15509
     15508     15509     15510     15511     15510     15512     15511     15512
     15513     15514     15513     15515     15514     15515     15516     15517
     15516     15518     15517     15518     15519     15520     15519     15521
     15520     15521     15522     15523     15522     15524     15523     15524
     15525     15526     15525     15527     15526     15527     15528     15529
     15528     15530     15529     15530     15531     15532     15531     15533
     15532     15533     15534     15535     15534     15536     15535     15536
     15537     15538     15537     15539     15538     15539     15540     15541
     15540     15542     15541     15542     15543     15544     15543     15545
     15544     15545     15546     15547     15546     15548     15547     15548
     15549     15550     15549     15551     15550     15551     15552     15553
     15552     15554     15553     15554     15555     15556     15555     15557
     15556     15557     15558     15559     15558     15560     15559     15560
     15561     15562     15561     15563     15562     15563     15564     15565
     15564     15566     15565     15566     15567     15568     15567     15569
     15568     15569     15570     15571     15570     15572     15571     15572
     15573     15574     15573     15575     15574     15575     15576     15577
     15576     15578     15577     15578     15579     15580     15579     15581
     15580     15581     15582     15583     15582     15584     15583     15584
     15585     15586     15585     15587     15586     15587     15588     15589
     15588     15590     15589     15590     15591     15592     15591     15593
     15592     15593     15594     15595     15594     15596     15595     15596
     15597     15598     15597     15599     15598     15599     15600     15601
     15600     15602     15601     15602     15603     15604     15603     15605
     15604     15605     15606     15607     15606     15608     15607     15608
     15609     15610     15609     15611     15610     15611     15612     15613
     15612     15614     15613     15614     15615     15616     15615     15617
     15616     15617     15618     15619     15618     15620     15619     15620
     15621     15622     15621     15623     15622     15623     15624     15625
     15624     15626     15625     15626     15627     15628     15627     15629
     15628     15629     15630     15631     15630     15632     15631     15632
     15633     15634     15633     15635     15634     15635     15636     15637
     15636     15638     15637     15638     15639     15640     15639     15641
     15640     15641     15642     15643     15642     15644     15643     15644
     15645     15646     15645     15647     15646     15647     15648     15649
     15648     15650     15649     15650     15651     15652     15651     15653
     15652     15653     15654     15655     15654     15656     15655     15656
     15657     15658     15657     15659     15658     15659     15660     15661
     15660     15662     15661     15662     15663     15664     15663     15665
     15664     15665     15666     15667     15666     15668     15667     15668
     15669     15670     15669     15671     15670     15671     15672     15673
     15672     15674     15673     15674     15675     15676     15675     15677
     15676     15677     15678     15679     15678     15680     15679     15680
     15681     15682     15681     15683     15682     15683     15684     15685
     15684     15686     15685     15686     15687     15688     15687     15689
     15688     15689     15690     15691     15690     15692     15691     15692
     15693     15694     15693     15695     15694     15695     15696     15697
     15696     15698     15697     15698     15699     15700     15699     15701
     15700     15701     15702     15703     15702     15704     15703     15704
     15705     15706     15705     15707     15706     15707     15708     15709
     15708     15710     15709     15710     15711     15712     15711     15713
     15712     15713     15714     15715     15714     15716     15715     15716
     15717     15718     15717     15719     15718     15719     15720     15721
     15720     15722     15721     15722     15723     15724     15723     15725
     15724     15725     15726     15727     15726     15728     15727     15728
     15729     15730     15729     15731     15730     15731     15732     15733
     15732     15734     15733     15734     15735     15736     15735     15737
     15736     15737     15738     15739     15738     15740     15739     15740
     15741     15742     15741     15743     15742     15743     15744     15745
     15744     15746     15745     15746     15747     15748     15747     15749
     15748     15749     15750     15751     15750     15752     15751     15752
     15753     15754     15753     15755     15754     15755     15756     15757
     15756     15758     15757     15758     15759     15760     15759     15761
     15760     15761     15762     15763     15762     15764     15763     15764
     15765     15766     15765     15767     15766     15767     15768     15769
     15768     15770     15769     15770     15771     15772     15771     15773
     15772     15773     15774     15775     15774     15776     15775     15776
     15777     15778     15777     15779     15778     15779     15780     15781
     15780     15782     15781     15782     15783     15784     15783     15785
     15784     15785     15786     15787     15786     15788     15787     15788
     15789     15790     15789     15791     15790     15791     15792     15793
     15792     15794     15793     15794     15795     15796     15795     15797
     15796     15797     15798     15799     15798     15800     15799     15800
     15801     15802     15801     15803     15802     15803     15804     15805
     15804     15806     15805     15806     15807     15808     15807     15809
     15808     15809     15810     15811     15810     15812     15811     15812
     15813     15814     15813     15815     15814     15815     15816     15817
     15816     15818     15817     15818     15819     15820     15819     15821
     15820     15821     15822     15823     15822     15824     15823     15824
     15825     15826     15825     15827     15826     15827     15828     15829
     15828     15830     15829     15830     15831     15832     15831     15833
     15832     15833     15834     15835     15834     15836     15835     15836
     15837     15838     15837     15839     15838     15839     15840     15841
     15840     15842     15841     15842     15843     15844     15843     15845
     15844     15845     15846     15847     15846     15848     15847     15848
     15849     15850     15849     15851     15850     15851     15852     15853
     15852     15854     15853     15854     15855     15856     15855     15857
     15856     15857     15858     15859     15858     15860     15859     15860
     15861     15862     15861     15863     15862     15863     15864     15865
     15864     15866     15865     15866     15867     15868     15867     15869
     15868     15869     15870     15871     15870     15872     15871     15872
     15873     15874     15873     15875     15874     15875     15876     15877
     15876     15878     15877     15878     15879     15880     15879     15881
     15880     15881     15882     15883     15882     15884     15883     15884
     15885     15886     15885     15887     15886     15887     15888     15889
     15888     15890     15889     15890     15891     15892     15891     15893
     15892     15893     15894     15895     15894     15896     15895     15896
     15897     15898     15897     15899     15898     15899     15900     15901
     15900     15902     15901     15902     15903     15904     15903     15905
     15904     15905     15906     15907     15906     15908     15907     15908
     15909     15910     15909     15911     15910     15911     15912     15913
     15912     15914     15913     15914     15915     15916     15915     15917
     15916     15917     15918     15919     15918     15920     15919     15920
     15921     15922     15921     15923     15922     15923     15924     15925
     15924     15926     15925     15926     15927     15928     15927     15929
     15928     15929     15930     15931     15930     15932     15931     15932
     15933     15934     15933     15935     15934     15935     15936     15937
     15936     15938     15937     15938     15939     15940     15939     15941
     15940     15941     15942     15943     15942     15944     15943     15944
     15945     15946     15945     15947     15946     15947     15948     15949
     15948     15950     15949     15950     15951     15952     15951     15953
     15952     15953     15954     15955     15954     15956     15955     15956
     15957     15958     15957     15959     15958     15959     15960     15961
     15960     15962     15961     15962     15963     15964     15963     15965
     15964     15965     15966     15967     15966     15968     15967     15968
     15969     15970     15969     15971     15970     15971     15972     15973
     15972     15974     15973     15974     15975     15976     15975     15977
     15976     15977     15978     15979     15978     15980     15979     15980
     15981     15982     15981     15983     15982     15983     15984     15985
     15984     15986     15985     15986     15987     15988     15987     15989
     15988     15989     15990     15991     15990     15992     15991     15992
     15993     15994     15993     15995     15994     15995     15996     15997
     15996     15998     15997     15998     15999     16000     15999     16001
     16000     16001     16002     16003     16002     16004     16003     16004
     16005     16006     16005     16007     16006     16007     16008     16009
     16008     16010     16009     16010     16011     16012     16011     16013
     16012     16013     16014     16015     16014     16016     16015     16016
     16017     16018     16017     16019     16018     16019     16020     16021
     16020     16022     16021     16022     16023     16024     16023     16025
     16024     16025     16026     16027     16026     16028     16027     16028
     16029     16030     16029     16031     16030     16031     16032     16033
     16032     16034     16033     16034     16035     16036     16035     16037
     16036     16037     16038     16039     16038     16040     16039     16040
     16041     16042     16041     16043     16042     16043     16044     16045
     16044     16046     16045     16046     16047     16048     16047     16049
     16048     16049     16050     16051     16050     16052     16051     16052
     16053     16054     16053     16055     16054     16055     16056     16057
     16056     16058     16057     16058     16059     16060     16059     16061
     16060     16061     16062     16063     16062     16064     16063     16064
     16065     16066     16065     16067     16066     16067     16068     16069
     16068     16070     16069     16070     16071     16072     16071     16073
     16072     16073     16074     16075     16074     16076     16075     16076
     16077     16078     16077     16079     16078     16079     16080     16081
     16080     16082     16081     16082     16083     16084     16083     16085
     16084     16085     16086     16087     16086     16088     16087     16088
     16089     16090     16089     16091     16090     16091     16092     16093
     16092     16094     16093     16094     16095     16096     16095     16097
     16096     16097     16098     16099     16098     16100     16099     16100
     16101     16102     16101     16103     16102     16103     16104     16105
     16104     16106     16105     16106     16107     16108     16107     16109
     16108     16109     16110     16111     16110     16112     16111     16112
     16113     16114     16113     16115     16114     16115     16116     16117
     16116     16118     16117     16118     16119     16120     16119     16121
     16120     16121     16122     16123     16122     16124     16123     16124
     16125     16126     16125     16127     16126     16127     16128     16129
     16128     16130     16129     16130     16131     16132     16131     16133
     16132     16133     16134     16135     16134     16136     16135     16136
     16137     16138     16137     16139     16138     16139     16140     16141
     16140     16142     16141     16142     16143     16144     16143     16145
     16144     16145     16146     16147     16146     16148     16147     16148
     16149     16150     16149     16151     16150     16151     16152     16153
     16152     16154     16153     16154     16155     16156     16155     16157
     16156     16157     16158     16159     16158     16160     16159     16160
     16161     16162     16161     16163     16162     16163     16164     16165
     16164     16166     16165     16166     16167     16168     16167     16169
     16168     16169     16170     16171     16170     16172     16171     16172
     16173     16174     16173     16175     16174     16175     16176     16177
     16176     16178     16177     16178     16179     16180     16179     16181
     16180     16181     16182     16183     16182     16184     16183     16184
     16185     16186     16185     16187     16186     16187     16188     16189
     16188     16190     16189     16190     16191     16192     16191     16193
     16192     16193     16194     16195     16194     16196     16195     16196
     16197     16198     16197     16199     16198     16199     16200     16201
     16200     16202     16201     16202     16203     16204     16203     16205
     16204     16205     16206     16207     16206     16208     16207     16208
     16209     16210     16209     16211     16210     16211     16212     16213
     16212     16214     16213     16214     16215     16216     16215     16217
     16216     16217     16218     16219     16218     16220     16219     16220
     16221     16222     16221     16223     16222     16223     16224     16225
     16224     16226     16225     16226     16227     16228     16227     16229
     16228     16229     16230     16231     16230     16232     16231     16232
     16233     16234     16233     16235     16234     16235     16236     16237
     16236     16238     16237     16238     16239     16240     16239     16241
     16240     16241     16242     16243     16242     16244     16243     16244
     16245     16246     16245     16247     16246     16247     16248     16249
     16248     16250     16249     16250     16251     16252     16251     16253
     16252     16253     16254     16255     16254     16256     16255     16256
     16257     16258     16257     16259     16258     16259     16260     16261
     16260     16262     16261     16262     16263     16264     16263     16265
     16264     16265     16266     16267     16266     16268     16267     16268
     16269     16270     16269     16271     16270     16271     16272     16273
     16272     16274     16273     16274     16275     16276     16275     16277
     16276     16277     16278     16279     16278     16280     16279     16280
     16281     16282     16281     16283     16282     16283     16284     16285
     16284     16286     16285     16286     16287     16288     16287     16289
     16288     16289     16290     16291     16290     16292     16291     16292
     16293     16294     16293     16295     16294     16295     16296     16297
     16296     16298     16297     16298     16299     16300     16299     16301
     16300     16301     16302     16303     16302     16304     16303     16304
     16305     16306     16305     16307     16306     16307     16308     16309
     16308     16310     16309     16310     16311     16312     16311     16313
     16312     16313     16314     16315     16314     16316     16315     16316
     16317     16318     16317     16319     16318     16319     16320     16321
     16320     16322     16321     16322     16323     16324     16323     16325
     16324     16325     16326     16327     16326     16328     16327     16328
     16329     16330     16329     16331     16330     16331     16332     16333
     16332     16334     16333     16334     16335     16336     16335     16337
     16336     16337     16338     16339     16338     16340     16339     16340
     16341     16342     16341     16343     16342     16343     16344     16345
     16344     16346     16345     16346     16347     16348     16347     16349
     16348     16349     16350     16351     16350     16352     16351     16352
     16353     16354     16353     16355     16354     16355     16356     16357
     16356     16358     16357     16358     16359     16360     16359     16361
     16360     16361     16362     16363     16362     16364     16363     16364
     16365     16366     16365     16367     16366     16367     16368     16369
     16368     16370     16369     16370     16371     16372     16371     16373
     16372     16373     16374     16375     16374     16376     16375     16376
     16377     16378     16377     16379     16378     16379     16380     16381
     16380     16382     16381     16382     16383     16384     16383     16385
     16384     16385     16386     16387     16386     16388     16387     16388
     16389     16390     16389     16391     16390     16391     16392     16393
     16392     16394     16393     16394     16395     16396     16395     16397
     16396     16397     16398     16399     16398     16400     16399     16400
     16401     16402     16401     16403     16402     16403     16404     16405
     16404     16406     16405     16406     16407     16408     16407     16409
     16408     16409     16410     16411     16410     16412     16411     16412
     16413     16414     16413     16415     16414     16415     16416     16417
     16416     16418     16417     16418     16419     16420     16419     16421
     16420     16421     16422     16423     16422     16424     16423     16424
     16425     16426     16425     16427     16426     16427     16428     16429
     16428     16430     16429     16430     16431     16432     16431     16433
     16432     16433     16434     16435     16434     16436     16435     16436
     16437     16438     16437     16439     16438     16439     16440     16441
     16440     16442     16441     16442     16443     16444     16443     16445
     16444     16445     16446     16447     16446     16448     16447     16448
     16449     16450     16449     16451     16450     16451     16452     16453
     16452     16454     16453     16454     16455     16456     16455     16457
     16456     16457     16458     16459     16458     16460     16459     16460
     16461     16462     16461     16463     16462     16463     16464     16465
     16464     16466     16465     16466     16467     16468     16467     16469
     16468     16469     16470     16471     16470     16472     16471     16472
     16473     16474     16473     16475     16474     16475     16476     16477
     16476     16478     16477     16478     16479     16480     16479     16481
     16480     16481     16482     16483     16482     16484     16483     16484
     16485     16486     16485     16487     16486     16487     16488     16489
     16488     16490     16489     16490     16491     16492     16491     16493
     16492     16493     16494     16495     16494     16496     16495     16496
     16497     16498     16497     16499     16498     16499     16500     16501
     16500     16502     16501     16502     16503     16504     16503     16505
     16504     16505     16506     16507     16506     16508     16507     16508
     16509     16510     16509     16511     16510     16511     16512     16513
     16512     16514     16513     16514     16515     16516     16515     16517
     16516     16517     16518     16519     16518     16520     16519     16520
     16521     16522     16521     16523     16522     16523     16524     16525
     16524     16526     16525     16526     16527     16528     16527     16529
     16528     16529     16530     16531     16530     16532     16531     16532
     16533     16534     16533     16535     16534     16535     16536     16537
     16536     16538     16537     16538     16539     16540     16539     16541
     16540     16541     16542     16543     16542     16544     16543     16544
     16545     16546     16545     16547     16546     16547     16548     16549
     16548     16550     16549     16550     16551     16552     16551     16553
     16552     16553     16554     16555     16554     16556     16555     16556
     16557     16558     16557     16559     16558     16559     16560     16561
     16560     16562     16561     16562     16563     16564     16563     16565
     16564     16565     16566     16567     16566     16568     16567     16568
     16569     16570     16569     16571     16570     16571     16572     16573
     16572     16574     16573     16574     16575     16576     16575     16577
     16576     16577     16578     16579     16578     16580     16579     16580
     16581     16582     16581     16583     16582     16583     16584     16585
     16584     16586     16585     16586     16587     16588     16587     16589
     16588     16589     16590     16591     16590     16592     16591     16592
     16593     16594     16593     16595     16594     16595     16596     16597
     16596     16598     16597     16598     16599     16600     16599     16601
     16600     16601     16602     16603     16602     16604     16603     16604
     16605     16606     16605     16607     16606     16607     16608     16609
     16608     16610     16609     16610     16611     16612     16611     16613
     16612     16613     16614     16615     16614     16616     16615     16616
     16617     16618     16617     16619     16618     16619     16620     16621
     16620     16622     16621     16622     16623     16624     16623     16625
     16624     16625     16626     16627     16626     16628     16627     16628
     16629     16630     16629     16631     16630     16631     16632     16633
     16632     16634     16633     16634     16635     16636     16635     16637
     16636     16637     16638     16639     16638     16640     16639     16640
     16641     16642     16641     16643     16642     16643     16644     16645
     16644     16646     16645     16646     16647     16648     16647     16649
     16648     16649     16650     16651     16650     16652     16651     16652
     16653     16654     16653     16655     16654     16655     16656     16657
     16656     16658     16657     16658     16659     16660     16659     16661
     16660     16661     16662     16663     16662     16664     16663     16664
     16665     16666     16665     16667     16666     16667     16668     16669
     16668     16670     16669     16670     16671     16672     16671     16673
     16672     16673     16674     16675     16674     16676     16675     16676
     16677     16678     16677     16679     16678     16679     16680     16681
     16680     16682     16681     16682     16683     16684     16683     16685
     16684     16685     16686     16687     16686     16688     16687     16688
     16689     16690     16689     16691     16690     16691     16692     16693
     16692     16694     16693     16694     16695     16696     16695     16697
     16696     16697     16698     16699     16698     16700     16699     16700
     16701     16702     16701     16703     16702     16703     16704     16705
     16704     16706     16705     16706     16707     16708     16707     16709
     16708     16709     16710     16711     16710     16712     16711     16712
     16713     16714     16713     16715     16714     16715     16716     16717
     16716     16718     16717     16718     16719     16720     16719     16721
     16720     16721     16722     16723     16722     16724     16723     16724
     16725     16726     16725     16727     16726     16727     16728     16729
     16728     16730     16729     16730     16731     16732     16731     16733
     16732     16733     16734     16735     16734     16736     16735     16736
     16737     16738     16737     16739     16738     16739     16740     16741
     16740     16742     16741     16742     16743     16744     16743     16745
     16744     16745     16746     16747     16746     16748     16747     16748
     16749     16750     16749     16751     16750     16751     16752     16753
     16752     16754     16753     16754     16755     16756     16755     16757
     16756     16757     16758     16759     16758     16760     16759     16760
     16761     16762     16761     16763     16762     16763     16764     16765
     16764     16766     16765     16766     16767     16768     16767     16769
     16768     16769     16770     16771     16770     16772     16771     16772
     16773     16774     16773     16775     16774     16775     16776     16777
     16776     16778     16777     16778     16779     16780     16779     16781
     16780     16781     16782     16783     16782     16784     16783     16784
     16785     16786     16785     16787     16786     16787     16788     16789
     16788     16790     16789     16790     16791     16792     16791     16793
     16792     16793     16794     16795     16794     16796     16795     16796
     16797     16798     16797     16799     16798     16799     16800     16801
     16800     16802     16801     16802     16803     16804     16803     16805
     16804     16805     16806     16807     16806     16808     16807     16808
     16809     16810     16809     16811     16810     16811     16812     16813
     16812     16814     16813     16814     16815     16816     16815     16817
     16816     16817     16818     16819     16818     16820     16819     16820
     16821     16822     16821     16823     16822     16823     16824     16825
     16824     16826     16825     16826     16827     16828     16827     16829
     16828     16829     16830     16831     16830     16832     16831     16832
     16833     16834     16833     16835     16834     16835     16836     16837
     16836     16838     16837     16838     16839     16840     16839     16841
     16840     16841     16842     16843     16842     16844     16843     16844
     16845     16846     16845     16847     16846     16847     16848     16849
     16848     16850     16849     16850     16851     16852     16851     16853
     16852     16853     16854     16855     16854     16856     16855     16856
     16857     16858     16857     16859     16858     16859     16860     16861
     16860     16862     16861     16862     16863     16864     16863     16865
     16864     16865     16866     16867     16866     16868     16867     16868
     16869     16870     16869     16871     16870     16871     16872     16873
     16872     16874     16873     16874     16875     16876     16875     16877
     16876     16877     16878     16879     16878     16880     16879     16880
     16881     16882     16881     16883     16882     16883     16884     16885
     16884     16886     16885     16886     16887     16888     16887     16889
     16888     16889     16890     16891     16890     16892     16891     16892
     16893     16894     16893     16895     16894     16895     16896     16897
     16896     16898     16897     16898     16899     16900     16899     16901
     16900     16901     16902     16903     16902     16904     16903     16904
     16905     16906     16905     16907     16906     16907     16908     16909
     16908     16910     16909     16910     16911     16912     16911     16913
     16912     16913     16914     16915     16914     16916     16915     16916
     16917     16918     16917     16919     16918     16919     16920     16921
     16920     16922     16921     16922     16923     16924     16923     16925
     16924     16925     16926     16927     16926     16928     16927     16928
     16929     16930     16929     16931     16930     16931     16932     16933
     16932     16934     16933     16934     16935     16936     16935     16937
     16936     16937     16938     16939     16938     16940     16939     16940
     16941     16942     16941     16943     16942     16943     16944     16945
     16944     16946     16945     16946     16947     16948     16947     16949
     16948     16949     16950     16951     16950     16952     16951     16952
     16953     16954     16953     16955     16954     16955     16956     16957
     16956     16958     16957     16958     16959     16960     16959     16961
     16960     16961     16962     16963     16962     16964     16963     16964
     16965     16966     16965     16967     16966     16967     16968     16969
     16968     16970     16969     16970     16971     16972     16971     16973
     16972     16973     16974     16975     16974     16976     16975     16976
     16977     16978     16977     16979     16978     16979     16980     16981
     16980     16982     16981     16982     16983     16984     16983     16985
     16984     16985     16986     16987     16986     16988     16987     16988
     16989     16990     16989     16991     16990     16991     16992     16993
     16992     16994     16993     16994     16995     16996     16995     16997
     16996     16997     16998     16999     16998     17000     16999     17000
     17001     17002     17001     17003     17002     17003     17004     17005
     17004     17006     17005     17006     17007     17008     17007     17009
     17008     17009     17010     17011     17010     17012     17011     17012
     17013     17014     17013     17015     17014     17015     17016     17017
     17016     17018     17017     17018     17019     17020     17019     17021
     17020     17021     17022     17023     17022     17024     17023     17024
     17025     17026     17025     17027     17026     17027     17028     17029
     17028     17030     17029     17030     17031     17032     17031     17033
     17032     17033     17034     17035     17034     17036     17035     17036
     17037     17038     17037     17039     17038     17039     17040     17041
     17040     17042     17041     17042     17043     17044     17043     17045
     17044     17045     17046     17047     17046     17048     17047     17048
     17049     17050     17049     17051     17050     17051     17052     17053
     17052     17054     17053     17054     17055     17056     17055     17057
     17056     17057     17058     17059     17058     17060     17059     17060
     17061     17062     17061     17063     17062     17063     17064     17065
     17064     17066     17065     17066     17067     17068     17067     17069
     17068     17069     17070     17071     17070     17072     17071     17072
     17073     17074     17073     17075     17074     17075     17076     17077
     17076     17078     17077     17078     17079     17080     17079     17081
     17080     17081     17082     17083     17082     17084     17083     17084
     17085     17086     17085     17087     17086     17087     17088     17089
     17088     17090     17089     17090     17091     17092     17091     17093
     17092     17093     17094     17095     17094     17096     17095     17096
     17097     17098     17097     17099     17098     17099     17100     17101
     17100     17102     17101     17102     17103     17104     17103     17105
     17104     17105     17106     17107     17106     17108     17107     17108
     17109     17110     17109     17111     17110     17111     17112     17113
     17112     17114     17113     17114     17115     17116     17115     17117
     17116     17117     17118     17119     17118     17120     17119     17120
     17121     17122     17121     17123     17122     17123     17124     17125
     17124     17126     17125     17126     17127     17128     17127     17129
     17128     17129     17130     17131     17130     17132     17131     17132
     17133     17134     17133     17135     17134     17135     17136     17137
     17136     17138     17137     17138     17139     17140     17139     17141
     17140     17141     17142     17143     17142     17144     17143     17144
     17145     17146     17145     17147     17146     17147     17148     17149
     17148     17150     17149     17150     17151     17152     17151     17153
     17152     17153     17154     17155     17154     17156     17155     17156
     17157     17158     17157     17159     17158     17159     17160     17161
     17160     17162     17161     17162     17163     17164     17163     17165
     17164     17165     17166     17167     17166     17168     17167     17168
     17169     17170     17169     17171     17170     17171     17172     17173
     17172     17174     17173     17174     17175     17176     17175     17177
     17176     17177     17178     17179     17178     17180     17179     17180
     17181     17182     17181     17183     17182     17183     17184     17185
     17184     17186     17185     17186     17187     17188     17187     17189
     17188     17189     17190     17191     17190     17192     17191     17192
     17193     17194     17193     17195     17194     17195     17196     17197
     17196     17198     17197     17198     17199     17200     17199     17201
     17200     17201     17202     17203     17202     17204     17203     17204
     17205     17206     17205     17207     17206     17207     17208     17209
     17208     17210     17209     17210     17211     17212     17211     17213
     17212     17213     17214     17215     17214     17216     17215     17216
     17217     17218     17217     17219     17218     17219     17220     17221
     17220     17222     17221     17222     17223     17224     17223     17225
     17224     17225     17226     17227     17226     17228     17227     17228
     17229     17230     17229     17231     17230     17231     17232     17233
     17232     17234     17233     17234     17235     17236     17235     17237
     17236     17237     17238     17239     17238     17240     17239     17240
     17241     17242     17241     17243     17242     17243     17244     17245
     17244     17246     17245     17246     17247     17248     17247     17249
     17248     17249     17250     17251     17250     17252     17251     17252
     17253     17254     17253     17255     17254     17255     17256     17257
     17256     17258     17257     17258     17259     17260     17259     17261
     17260     17261     17262     17263     17262     17264     17263     17264
     17265     17266     17265     17267     17266     17267     17268     17269
     17268     17270     17269     17270     17271     17272     17271     17273
     17272     17273     17274     17275     17274     17276     17275     17276
     17277     17278     17277     17279     17278     17279     17280     17281
     17280     17282     17281     17282     17283     17284     17283     17285
     17284     17285     17286     17287     17286     17288     17287     17288
     17289     17290     17289     17291     17290     17291     17292     17293
     17292     17294     17293     17294     17295     17296     17295     17297
     17296     17297     17298     17299     17298     17300     17299     17300
     17301     17302     17301     17303     17302     17303     17304     17305
     17304     17306     17305     17306     17307     17308     17307     17309
     17308     17309     17310     17311     17310     17312     17311     17312
     17313     17314     17313     17315     17314     17315     17316     17317
     17316     17318     17317     17318     17319     17320     17319     17321
     17320     17321     17322     17323     17322     17324     17323     17324
     17325     17326     17325     17327     17326     17327     17328     17329
     17328     17330     17329     17330     17331     17332     17331     17333
     17332     17333     17334     17335     17334     17336     17335     17336
     17337     17338     17337     17339     17338     17339     17340     17341
     17340     17342     17341     17342     17343     17344     17343     17345
     17344     17345     17346     17347     17346     17348     17347     17348
     17349     17350     17349     17351     17350     17351     17352     17353
     17352     17354     17353     17354     17355     17356     17355     17357
     17356     17357     17358     17359     17358     17360     17359     17360
     17361     17362     17361     17363     17362     17363     17364     17365
     17364     17366     17365     17366     17367     17368     17367     17369
     17368     17369     17370     17371     17370     17372     17371     17372
     17373     17374     17373     17375     17374     17375     17376     17377
     17376     17378     17377     17378     17379     17380     17379     17381
     17380     17381     17382     17383     17382     17384     17383     17384
     17385     17386     17385     17387     17386     17387     17388     17389
     17388     17390     17389     17390     17391     17392     17391     17393
     17392     17393     17394     17395     17394     17396     17395     17396
     17397     17398     17397     17399     17398     17399     17400     17401
     17400     17402     17401     17402     17403     17404     17403     17405
     17404     17405     17406     17407     17406     17408     17407     17408
     17409     17410     17409     17411     17410     17411     17412     17413
     17412     17414     17413     17414     17415     17416     17415     17417
     17416     17417     17418     17419     17418     17420     17419     17420
     17421     17422     17421     17423     17422     17423     17424     17425
     17424     17426     17425     17426     17427     17428     17427     17429
     17428     17429     17430     17431     17430     17432     17431     17432
     17433     17434     17433     17435     17434     17435     17436     17437
     17436     17438     17437     17438     17439     17440     17439     17441
     17440     17441     17442     17443     17442     17444     17443     17444
     17445     17446     17445     17447     17446     17447     17448     17449
     17448     17450     17449     17450     17451     17452     17451     17453
     17452     17453     17454     17455     17454     17456     17455     17456
     17457     17458     17457     17459     17458     17459     17460     17461
     17460     17462     17461     17462     17463     17464     17463     17465
     17464     17465     17466     17467     17466     17468     17467     17468
     17469     17470     17469     17471     17470     17471     17472     17473
     17472     17474     17473     17474     17475     17476     17475     17477
     17476     17477     17478     17479     17478     17480     17479     17480
     17481     17482     17481     17483     17482     17483     17484     17485
     17484     17486     17485     17486     17487     17488     17487     17489
     17488     17489     17490     17491     17490     17492     17491     17492
     17493     17494     17493     17495     17494     17495     17496     17497
     17496     17498     17497     17498     17499     17500     17499     17501
     17500     17501     17502     17503     17502     17504     17503     17504
     17505     17506     17505     17507     17506     17507     17508     17509
     17508     17510     17509     17510     17511     17512     17511     17513
     17512     17513     17514     17515     17514     17516     17515     17516
     17517     17518     17517     17519     17518     17519     17520     17521
     17520     17522     17521     17522     17523     17524     17523     17525
     17524     17525     17526     17527     17526     17528     17527     17528
     17529     17530     17529     17531     17530     17531     17532     17533
     17532     17534     17533     17534     17535     17536     17535     17537
     17536     17537     17538     17539     17538     17540     17539     17540
     17541     17542     17541     17543     17542     17543     17544     17545
     17544     17546     17545     17546     17547     17548     17547     17549
     17548     17549     17550     17551     17550     17552     17551     17552
     17553     17554     17553     17555     17554     17555     17556     17557
     17556     17558     17557     17558     17559     17560     17559     17561
     17560     17561     17562     17563     17562     17564     17563     17564
     17565     17566     17565     17567     17566     17567     17568     17569
     17568     17570     17569     17570     17571     17572     17571     17573
     17572     17573     17574     17575     17574     17576     17575     17576
     17577     17578     17577     17579     17578     17579     17580     17581
     17580     17582     17581     17582     17583     17584     17583     17585
     17584     17585     17586     17587     17586     17588     17587     17588
     17589     17590     17589     17591     17590     17591     17592     17593
     17592     17594     17593     17594     17595     17596     17595     17597
     17596     17597     17598     17599     17598     17600     17599     17600
     17601     17602     17601     17603     17602     17603     17604     17605
     17604     17606     17605     17606     17607     17608     17607     17609
     17608     17609     17610     17611     17610     17612     17611     17612
     17613     17614     17613     17615     17614     17615     17616     17617
     17616     17618     17617     17618     17619     17620     17619     17621
     17620     17621     17622     17623     17622     17624     17623     17624
     17625     17626     17625     17627     17626     17627     17628     17629
     17628     17630     17629     17630     17631     17632     17631     17633
     17632     17633     17634     17635     17634     17636     17635     17636
     17637     17638     17637     17639     17638     17639     17640     17641
     17640     17642     17641     17642     17643     17644     17643     17645
     17644     17645     17646     17647     17646     17648     17647     17648
     17649     17650     17649     17651     17650     17651     17652     17653
     17652     17654     17653     17654     17655     17656     17655     17657
     17656     17657     17658     17659     17658     17660     17659     17660
     17661     17662     17661     17663     17662     17663     17664     17665
     17664     17666     17665     17666     17667     17668     17667     17669
     17668     17669     17670     17671     17670     17672     17671     17672
     17673     17674     17673     17675     17674     17675     17676     17677
     17676     17678     17677     17678     17679     17680     17679     17681
     17680     17681     17682     17683     17682     17684     17683     17684
     17685     17686     17685     17687     17686     17687     17688     17689
     17688     17690     17689     17690     17691     17692     17691     17693
     17692     17693     17694     17695     17694     17696     17695     17696
     17697     17698     17697     17699     17698     17699     17700     17701
     17700     17702     17701     17702     17703     17704     17703     17705
     17704     17705     17706     17707     17706     17708     17707     17708
     17709     17710     17709     17711     17710     17711     17712     17713
     17712     17714     17713     17714     17715     17716     17715     17717
     17716     17717     17718     17719     17718     17720     17719     17720
     17721     17722     17721     17723     17722     17723     17724     17725
     17724     17726     17725     17726     17727     17728     17727     17729
     17728     17729     17730     17731     17730     17732     17731     17732
     17733     17734     17733     17735     17734     17735     17736     17737
     17736     17738     17737     17738     17739     17740     17739     17741
     17740     17741     17742     17743     17742     17744     17743     17744
     17745     17746     17745     17747     17746     17747     17748     17749
     17748     17750     17749     17750     17751     17752     17751     17753
     17752     17753     17754     17755     17754     17756     17755     17756
     17757     17758     17757     17759     17758     17759     17760     17761
     17760     17762     17761     17762     17763     17764     17763     17765
     17764     17765     17766     17767     17766     17768     17767     17768
     17769     17770     17769     17771     17770     17771     17772     17773
     17772     17774     17773     17774     17775     17776     17775     17777
     17776     17777     17778     17779     17778     17780     17779     17780
     17781     17782     17781     17783     17782     17783     17784     17785
     17784     17786     17785     17786     17787     17788     17787     17789
     17788     17789     17790     17791     17790     17792     17791     17792
     17793     17794     17793     17795     17794     17795     17796     17797
     17796     17798     17797     17798     17799     17800     17799     17801
     17800     17801     17802     17803     17802     17804     17803     17804
     17805     17806     17805     17807     17806     17807     17808     17809
     17808     17810     17809     17810     17811     17812     17811     17813
     17812     17813     17814     17815     17814     17816     17815     17816
     17817     17818     17817     17819     17818     17819     17820     17821
     17820     17822     17821     17822     17823     17824     17823     17825
     17824     17825     17826     17827     17826     17828     17827     17828
     17829     17830     17829     17831     17830     17831     17832     17833
     17832     17834     17833     17834     17835     17836     17835     17837
     17836     17837     17838     17839     17838     17840     17839     17840
     17841     17842     17841     17843     17842     17843     17844     17845
     17844     17846     17845     17846     17847     17848     17847     17849
     17848     17849     17850     17851     17850     17852     17851     17852
     17853     17854     17853     17855     17854     17855     17856     17857
     17856     17858     17857     17858     17859     17860     17859     17861
     17860     17861     17862     17863     17862     17864     17863     17864
     17865     17866     17865     17867     17866     17867     17868     17869
     17868     17870     17869     17870     17871     17872     17871     17873
     17872     17873     17874     17875     17874     17876     17875     17876
     17877     17878     17877     17879     17878     17879     17880     17881
     17880     17882     17881     17882     17883     17884     17883     17885
     17884     17885     17886     17887     17886     17888     17887     17888
     17889     17890     17889     17891     17890     17891     17892     17893
     17892     17894     17893     17894     17895     17896     17895     17897
     17896     17897     17898     17899     17898     17900     17899     17900
     17901     17902     17901     17903     17902     17903     17904     17905
     17904     17906     17905     17906     17907     17908     17907     17909
     17908     17909     17910     17911     17910     17912     17911     17912
     17913     17914     17913     17915     17914     17915     17916     17917
     17916     17918     17917     17918     17919     17920     17919     17921
     17920     17921     17922     17923     17922     17924     17923     17924
     17925     17926     17925     17927     17926     17927     17928     17929
     17928     17930     17929     17930     17931     17932     17931     17933
     17932     17933     17934     17935     17934     17936     17935     17936
     17937     17938     17937     17939     17938     17939     17940     17941
     17940     17942     17941     17942     17943     17944     17943     17945
     17944     17945     17946     17947     17946     17948     17947     17948
     17949     17950     17949     17951     17950     17951     17952     17953
     17952     17954     17953     17954     17955     17956     17955     17957
     17956     17957     17958     17959     17958     17960     17959     17960
     17961     17962     17961     17963     17962     17963     17964     17965
     17964     17966     17965     17966     17967     17968     17967     17969
     17968     17969     17970     17971     17970     17972     17971     17972
     17973     17974     17973     17975     17974     17975     17976     17977
     17976     17978     17977     17978     17979     17980     17979     17981
     17980     17981     17982     17983     17982     17984     17983     17984
     17985     17986     17985     17987     17986     17987     17988     17989
     17988     17990     17989     17990     17991     17992     17991     17993
     17992     17993     17994     17995     17994     17996     17995     17996
     17997     17998     17997     17999     17998     17999     18000     18001
     18000     18002     18001     18002     18003     18004     18003     18005
     18004     18005     18006     18007     18006     18008     18007     18008
     18009     18010     18009     18011     18010     18011     18012     18013
     18012     18014     18013     18014     18015     18016     18015     18017
     18016     18017     18018     18019     18018     18020     18019     18020
     18021     18022     18021     18023     18022     18023     18024     18025
     18024     18026     18025     18026     18027     18028     18027     18029
     18028     18029     18030     18031     18030     18032     18031     18032
     18033     18034     18033     18035     18034     18035     18036     18037
     18036     18038     18037     18038     18039     18040     18039     18041
     18040     18041     18042     18043     18042     18044     18043     18044
     18045     18046     18045     18047     18046     18047     18048     18049
     18048     18050     18049     18050     18051     18052     18051     18053
     18052     18053     18054     18055     18054     18056     18055     18056
     18057     18058     18057     18059     18058     18059     18060     18061
     18060     18062     18061     18062     18063     18064     18063     18065
     18064     18065     18066     18067     18066     18068     18067     18068
     18069     18070     18069     18071     18070     18071     18072     18073
     18072     18074     18073     18074     18075     18076     18075     18077
     18076     18077     18078     18079     18078     18080     18079     18080
     18081     18082     18081     18083     18082     18083     18084     18085
     18084     18086     18085     18086     18087     18088     18087     18089
     18088     18089     18090     18091     18090     18092     18091     18092
     18093     18094     18093     18095     18094     18095     18096     18097
     18096     18098     18097     18098     18099     18100     18099     18101
     18100     18101     18102     18103     18102     18104     18103     18104
     18105     18106     18105     18107     18106     18107     18108     18109
     18108     18110     18109     18110     18111     18112     18111     18113
     18112     18113     18114     18115     18114     18116     18115     18116
     18117     18118     18117     18119     18118     18119     18120     18121
     18120     18122     18121     18122     18123     18124     18123     18125
     18124     18125     18126     18127     18126     18128     18127     18128
     18129     18130     18129     18131     18130     18131     18132     18133
     18132     18134     18133     18134     18135     18136     18135     18137
     18136     18137     18138     18139     18138     18140     18139     18140
     18141     18142     18141     18143     18142     18143     18144     18145
     18144     18146     18145     18146     18147     18148     18147     18149
     18148     18149     18150     18151     18150     18152     18151     18152
     18153     18154     18153     18155     18154     18155     18156     18157
     18156     18158     18157     18158     18159     18160     18159     18161
     18160     18161     18162     18163     18162     18164     18163     18164
     18165     18166     18165     18167     18166     18167     18168     18169
     18168     18170     18169     18170     18171     18172     18171     18173
     18172     18173     18174     18175     18174     18176     18175     18176
     18177     18178     18177     18179     18178     18179     18180     18181
     18180     18182     18181     18182     18183     18184     18183     18185
     18184     18185     18186     18187     18186     18188     18187     18188
     18189     18190     18189     18191     18190     18191     18192     18193
     18192     18194     18193     18194     18195     18196     18195     18197
     18196     18197     18198     18199     18198     18200     18199     18200
     18201     18202     18201     18203     18202     18203     18204     18205
     18204     18206     18205     18206     18207     18208     18207     18209
     18208     18209     18210     18211     18210     18212     18211     18212
     18213     18214     18213     18215     18214     18215     18216     18217
     18216     18218     18217     18218     18219     18220     18219     18221
     18220     18221     18222     18223     18222     18224     18223     18224
     18225     18226     18225     18227     18226     18227     18228     18229
     18228     18230     18229     18230     18231     18232     18231     18233
     18232     18233     18234     18235     18234     18236     18235     18236
     18237     18238     18237     18239     18238     18239     18240     18241
     18240     18242     18241     18242     18243     18244     18243     18245
     18244     18245     18246     18247     18246     18248     18247     18248
     18249     18250     18249     18251     18250     18251     18252     18253
     18252     18254     18253     18254     18255     18256     18255     18257
     18256     18257     18258     18259     18258     18260     18259     18260
     18261     18262     18261     18263     18262     18263     18264     18265
     18264     18266     18265     18266     18267     18268     18267     18269
     18268     18269     18270     18271     18270     18272     18271     18272
     18273     18274     18273     18275     18274     18275     18276     18277
     18276     18278     18277     18278     18279     18280     18279     18281
     18280     18281     18282     18283     18282     18284     18283     18284
     18285     18286     18285     18287     18286     18287     18288     18289
     18288     18290     18289     18290     18291     18292     18291     18293
     18292     18293     18294     18295     18294     18296     18295     18296
     18297     18298     18297     18299     18298     18299     18300     18301
     18300     18302     18301     18302     18303     18304     18303     18305
     18304     18305     18306     18307     18306     18308     18307     18308
     18309     18310     18309     18311     18310     18311     18312     18313
     18312     18314     18313     18314     18315     18316     18315     18317
     18316     18317     18318     18319     18318     18320     18319     18320
     18321     18322     18321     18323     18322     18323     18324     18325
     18324     18326     18325     18326     18327     18328     18327     18329
     18328     18329     18330     18331     18330     18332     18331     18332
     18333     18334     18333     18335     18334     18335     18336     18337
     18336     18338     18337     18338     18339     18340     18339     18341
     18340     18341     18342     18343     18342     18344     18343     18344
     18345     18346     18345     18347     18346     18347     18348     18349
     18348     18350     18349     18350     18351     18352     18351     18353
     18352     18353     18354     18355     18354     18356     18355     18356
     18357     18358     18357     18359     18358     18359     18360     18361
     18360     18362     18361     18362     18363     18364     18363     18365
     18364     18365     18366     18367     18366     18368     18367     18368
     18369     18370     18369     18371     18370     18371     18372     18373
     18372     18374     18373     18374     18375     18376     18375     18377
     18376     18377     18378     18379     18378     18380     18379     18380
     18381     18382     18381     18383     18382     18383     18384     18385
     18384     18386     18385     18386     18387     18388     18387     18389
     18388     18389     18390     18391     18390     18392     18391     18392
     18393     18394     18393     18395     18394     18395     18396     18397
     18396     18398     18397     18398     18399     18400     18399     18401
     18400     18401     18402     18403     18402     18404     18403     18404
     18405     18406     18405     18407     18406     18407     18408     18409
     18408     18410     18409     18410     18411     18412     18411     18413
     18412     18413     18414     18415     18414     18416     18415     18416
     18417     18418     18417     18419     18418     18419     18420     18421
     18420     18422     18421     18422     18423     18424     18423     18425
     18424     18425     18426     18427     18426     18428     18427     18428
     18429     18430     18429     18431     18430     18431     18432     18433
     18432     18434     18433     18434     18435     18436     18435     18437
     18436     18437     18438     18439     18438     18440     18439     18440
     18441     18442     18441     18443     18442     18443     18444     18445
     18444     18446     18445     18446     18447     18448     18447     18449
     18448     18449     18450     18451     18450     18452     18451     18452
     18453     18454     18453     18455     18454     18455     18456     18457
     18456     18458     18457     18458     18459     18460     18459     18461
     18460     18461     18462     18463     18462     18464     18463     18464
     18465     18466     18465     18467     18466     18467     18468     18469
     18468     18470     18469     18470     18471     18472     18471     18473
     18472     18473     18474     18475     18474     18476     18475     18476
     18477     18478     18477     18479     18478     18479     18480     18481
     18480     18482     18481     18482     18483     18484     18483     18485
     18484     18485     18486     18487     18486     18488     18487     18488
     18489     18490     18489     18491     18490     18491     18492     18493
     18492     18494     18493     18494     18495     18496     18495     18497
     18496     18497     18498     18499     18498     18500     18499     18500
     18501     18502     18501     18503     18502     18503     18504     18505
     18504     18506     18505     18506     18507     18508     18507     18509
     18508     18509     18510     18511     18510     18512     18511     18512
     18513     18514     18513     18515     18514     18515     18516     18517
     18516     18518     18517     18518     18519     18520     18519     18521
     18520     18521     18522     18523     18522     18524     18523     18524
     18525     18526     18525     18527     18526     18527     18528     18529
     18528     18530     18529     18530     18531     18532     18531     18533
     18532     18533     18534     18535     18534     18536     18535     18536
     18537     18538     18537     18539     18538     18539     18540     18541
     18540     18542     18541     18542     18543     18544     18543     18545
     18544     18545     18546     18547     18546     18548     18547     18548
     18549     18550     18549     18551     18550     18551     18552     18553
     18552     18554     18553     18554     18555     18556     18555     18557
     18556     18557     18558     18559     18558     18560     18559     18560
     18561     18562     18561     18563     18562     18563     18564     18565
     18564     18566     18565     18566     18567     18568     18567     18569
     18568     18569     18570     18571     18570     18572     18571     18572
     18573     18574     18573     18575     18574     18575     18576     18577
     18576     18578     18577     18578     18579     18580     18579     18581
     18580     18581     18582     18583     18582     18584     18583     18584
     18585     18586     18585     18587     18586     18587     18588     18589
     18588     18590     18589     18590     18591     18592     18591     18593
     18592     18593     18594     18595     18594     18596     18595     18596
     18597     18598     18597     18599     18598     18599     18600     18601
     18600     18602     18601     18602     18603     18604     18603     18605
     18604     18605     18606     18607     18606     18608     18607     18608
     18609     18610     18609     18611     18610     18611     18612     18613
     18612     18614     18613     18614     18615     18616     18615     18617
     18616     18617     18618     18619     18618     18620     18619     18620
     18621     18622     18621     18623     18622     18623     18624     18625
     18624     18626     18625     18626     18627     18628     18627     18629
     18628     18629     18630     18631     18630     18632     18631     18632
     18633     18634     18633     18635     18634     18635     18636     18637
     18636     18638     18637     18638     18639     18640     18639     18641
     18640     18641     18642     18643     18642     18644     18643     18644
     18645     18646     18645     18647     18646     18647     18648     18649
     18648     18650     18649     18650     18651     18652     18651     18653
     18652     18653     18654     18655     18654     18656     18655     18656
     18657     18658     18657     18659     18658     18659     18660     18661
     18660     18662     18661     18662     18663     18664     18663     18665
     18664     18665     18666     18667     18666     18668     18667     18668
     18669     18670     18669     18671     18670     18671     18672     18673
     18672     18674     18673     18674     18675     18676     18675     18677
     18676     18677     18678     18679     18678     18680     18679     18680
     18681     18682     18681     18683     18682     18683     18684     18685
     18684     18686     18685     18686     18687     18688     18687     18689
     18688     18689     18690     18691     18690     18692     18691     18692
     18693     18694     18693     18695     18694     18695     18696     18697
     18696     18698     18697     18698     18699     18700     18699     18701
     18700     18701     18702     18703     18702     18704     18703     18704
     18705     18706     18705     18707     18706     18707     18708     18709
     18708     18710     18709     18710     18711     18712     18711     18713
     18712     18713     18714     18715     18714     18716     18715     18716
     18717     18718     18717     18719     18718     18719     18720     18721
     18720     18722     18721     18722     18723     18724     18723     18725
     18724     18725     18726     18727     18726     18728     18727     18728
     18729     18730     18729     18731     18730     18731     18732     18733
     18732     18734     18733     18734     18735     18736     18735     18737
     18736     18737     18738     18739     18738     18740     18739     18740
     18741     18742     18741     18743     18742     18743     18744     18745
     18744     18746     18745     18746     18747     18748     18747     18749
     18748     18749     18750     18751     18750     18752     18751     18752
     18753     18754     18753     18755     18754     18755     18756     18757
     18756     18758     18757     18758     18759     18760     18759     18761
     18760     18761     18762     18763     18762     18764     18763     18764
     18765     18766     18765     18767     18766     18767     18768     18769
     18768     18770     18769     18770     18771     18772     18771     18773
     18772     18773     18774     18775     18774     18776     18775     18776
     18777     18778     18777     18779     18778     18779     18780     18781
     18780     18782     18781     18782     18783     18784     18783     18785
     18784     18785     18786     18787     18786     18788     18787     18788
     18789     18790     18789     18791     18790     18791     18792     18793
     18792     18794     18793     18794     18795     18796     18795     18797
     18796     18797     18798     18799     18798     18800     18799     18800
     18801     18802     18801     18803     18802     18803     18804     18805
     18804     18806     18805     18806     18807     18808     18807     18809
     18808     18809     18810     18811     18810     18812     18811     18812
     18813     18814     18813     18815     18814     18815     18816     18817
     18816     18818     18817     18818     18819     18820     18819     18821
     18820     18821     18822     18823     18822     18824     18823     18824
     18825     18826     18825     18827     18826     18827     18828     18829
     18828     18830     18829     18830     18831     18832     18831     18833
     18832     18833     18834     18835     18834     18836     18835     18836
     18837     18838     18837     18839     18838     18839     18840     18841
     18840     18842     18841     18842     18843     18844     18843     18845
     18844     18845     18846     18847     18846     18848     18847     18848
     18849     18850     18849     18851     18850     18851     18852     18853
     18852     18854     18853     18854     18855     18856     18855     18857
     18856     18857     18858     18859     18858     18860     18859     18860
     18861     18862     18861     18863     18862     18863     18864     18865
     18864     18866     18865     18866     18867     18868     18867     18869
     18868     18869     18870     18871     18870     18872     18871     18872
     18873     18874     18873     18875     18874     18875     18876     18877
     18876     18878     18877     18878     18879     18880     18879     18881
     18880     18881     18882     18883     18882     18884     18883     18884
     18885     18886     18885     18887     18886     18887     18888     18889
     18888     18890     18889     18890     18891     18892     18891     18893
     18892     18893     18894     18895     18894     18896     18895     18896
     18897     18898     18897     18899     18898     18899     18900     18901
     18900     18902     18901     18902     18903     18904     18903     18905
     18904     18905     18906     18907     18906     18908     18907     18908
     18909     18910     18909     18911     18910     18911     18912     18913
     18912     18914     18913     18914     18915     18916     18915     18917
     18916     18917     18918     18919     18918     18920     18919     18920
     18921     18922     18921     18923     18922     18923     18924     18925
     18924     18926     18925     18926     18927     18928     18927     18929
     18928     18929     18930     18931     18930     18932     18931     18932
     18933     18934     18933     18935     18934     18935     18936     18937
     18936     18938     18937     18938     18939     18940     18939     18941
     18940     18941     18942     18943     18942     18944     18943     18944
     18945     18946     18945     18947     18946     18947     18948     18949
     18948     18950     18949     18950     18951     18952     18951     18953
     18952     18953     18954     18955     18954     18956     18955     18956
     18957     18958     18957     18959     18958     18959     18960     18961
     18960     18962     18961     18962     18963     18964     18963     18965
     18964     18965     18966     18967     18966     18968     18967     18968
     18969     18970     18969     18971     18970     18971     18972     18973
     18972     18974     18973     18974     18975     18976     18975     18977
     18976     18977     18978     18979     18978     18980     18979     18980
     18981     18982     18981     18983     18982     18983     18984     18985
     18984     18986     18985     18986     18987     18988     18987     18989
     18988     18989     18990     18991     18990     18992     18991     18992
     18993     18994     18993     18995     18994     18995     18996     18997
     18996     18998     18997     18998     18999     19000     18999     19001
     19000     19001     19002     19003     19002     19004     19003     19004
     19005     19006     19005     19007     19006     19007     19008     19009
     19008     19010     19009     19010     19011     19012     19011     19013
     19012     19013     19014     19015     19014     19016     19015     19016
     19017     19018     19017     19019     19018     19019     19020     19021
     19020     19022     19021     19022     19023     19024     19023     19025
     19024     19025     19026     19027     19026     19028     19027     19028
     19029     19030     19029     19031     19030     19031     19032     19033
     19032     19034     19033     19034     19035     19036     19035     19037
     19036     19037     19038     19039     19038     19040     19039     19040
     19041     19042     19041     19043     19042     19043     19044     19045
     19044     19046     19045     19046     19047     19048     19047     19049
     19048     19049     19050     19051     19050     19052     19051     19052
     19053     19054     19053     19055     19054     19055     19056     19057
     19056     19058     19057     19058     19059     19060     19059     19061
     19060     19061     19062     19063     19062     19064     19063     19064
     19065     19066     19065     19067     19066     19067     19068     19069
     19068     19070     19069     19070     19071     19072     19071     19073
     19072     19073     19074     19075     19074     19076     19075     19076
     19077     19078     19077     19079     19078     19079     19080     19081
     19080     19082     19081     19082     19083     19084     19083     19085
     19084     19085     19086     19087     19086     19088     19087     19088
     19089     19090     19089     19091     19090     19091     19092     19093
     19092     19094     19093     19094     19095     19096     19095     19097
     19096     19097     19098     19099     19098     19100     19099     19100
     19101     19102     19101     19103     19102     19103     19104     19105
     19104     19106     19105     19106     19107     19108     19107     19109
     19108     19109     19110     19111     19110     19112     19111     19112
     19113     19114     19113     19115     19114     19115     19116     19117
     19116     19118     19117     19118     19119     19120     19119     19121
     19120     19121     19122     19123     19122     19124     19123     19124
     19125     19126     19125     19127     19126     19127     19128     19129
     19128     19130     19129     19130     19131     19132     19131     19133
     19132     19133     19134     19135     19134     19136     19135     19136
     19137     19138     19137     19139     19138     19139     19140     19141
     19140     19142     19141     19142     19143     19144     19143     19145
     19144     19145     19146     19147     19146     19148     19147     19148
     19149     19150     19149     19151     19150     19151     19152     19153
     19152     19154     19153     19154     19155     19156     19155     19157
     19156     19157     19158     19159     19158     19160     19159     19160
     19161     19162     19161     19163     19162     19163     19164     19165
     19164     19166     19165     19166     19167     19168     19167     19169
     19168     19169     19170     19171     19170     19172     19171     19172
     19173     19174     19173     19175     19174     19175     19176     19177
     19176     19178     19177     19178     19179     19180     19179     19181
     19180     19181     19182     19183     19182     19184     19183     19184
     19185     19186     19185     19187     19186     19187     19188     19189
     19188     19190     19189     19190     19191     19192     19191     19193
     19192     19193     19194     19195     19194     19196     19195     19196
     19197     19198     19197     19199     19198     19199     19200     19201
     19200     19202     19201     19202     19203     19204     19203     19205
     19204     19205     19206     19207     19206     19208     19207     19208
     19209     19210     19209     19211     19210     19211     19212     19213
     19212     19214     19213     19214     19215     19216     19215     19217
     19216     19217     19218     19219     19218     19220     19219     19220
     19221     19222     19221     19223     19222     19223     19224     19225
     19224     19226     19225     19226     19227     19228     19227     19229
     19228     19229     19230     19231     19230     19232     19231     19232
     19233     19234     19233     19235     19234     19235     19236     19237
     19236     19238     19237     19238     19239     19240     19239     19241
     19240     19241     19242     19243     19242     19244     19243     19244
     19245     19246     19245     19247     19246     19247     19248     19249
     19248     19250     19249     19250     19251     19252     19251     19253
     19252     19253     19254     19255     19254     19256     19255     19256
     19257     19258     19257     19259     19258     19259     19260     19261
     19260     19262     19261     19262     19263     19264     19263     19265
     19264     19265     19266     19267     19266     19268     19267     19268
     19269     19270     19269     19271     19270     19271     19272     19273
     19272     19274     19273     19274     19275     19276     19275     19277
     19276     19277     19278     19279     19278     19280     19279     19280
     19281     19282     19281     19283     19282     19283     19284     19285
     19284     19286     19285     19286     19287     19288     19287     19289
     19288     19289     19290     19291     19290     19292     19291     19292
     19293     19294     19293     19295     19294     19295     19296     19297
     19296     19298     19297     19298     19299     19300     19299     19301
     19300     19301     19302     19303     19302     19304     19303     19304
     19305     19306     19305     19307     19306     19307     19308     19309
     19308     19310     19309     19310     19311     19312     19311     19313
     19312     19313     19314     19315     19314     19316     19315     19316
     19317     19318     19317     19319     19318     19319     19320     19321
     19320     19322     19321     19322     19323     19324     19323     19325
     19324     19325     19326     19327     19326     19328     19327     19328
     19329     19330     19329     19331     19330     19331     19332     19333
     19332     19334     19333     19334     19335     19336     19335     19337
     19336     19337     19338     19339     19338     19340     19339     19340
     19341     19342     19341     19343     19342     19343     19344     19345
     19344     19346     19345     19346     19347     19348     19347     19349
     19348     19349     19350     19351     19350     19352     19351     19352
     19353     19354     19353     19355     19354     19355     19356     19357
     19356     19358     19357     19358     19359     19360     19359     19361
     19360     19361     19362     19363     19362     19364     19363     19364
     19365     19366     19365     19367     19366     19367     19368     19369
     19368     19370     19369     19370     19371     19372     19371     19373
     19372     19373     19374     19375     19374     19376     19375     19376
     19377     19378     19377     19379     19378     19379     19380     19381
     19380     19382     19381     19382     19383     19384     19383     19385
     19384     19385     19386     19387     19386     19388     19387     19388
     19389     19390     19389     19391     19390     19391     19392     19393
     19392     19394     19393     19394     19395     19396     19395     19397
     19396     19397     19398     19399     19398     19400     19399     19400
     19401     19402     19401     19403     19402     19403     19404     19405
     19404     19406     19405     19406     19407     19408     19407     19409
     19408     19409     19410     19411     19410     19412     19411     19412
     19413     19414     19413     19415     19414     19415     19416     19417
     19416     19418     19417     19418     19419     19420     19419     19421
     19420     19421     19422     19423     19422     19424     19423     19424
     19425     19426     19425     19427     19426     19427     19428     19429
     19428     19430     19429     19430     19431     19432     19431     19433
     19432     19433     19434     19435     19434     19436     19435     19436
     19437     19438     19437     19439     19438     19439     19440     19441
     19440     19442     19441     19442     19443     19444     19443     19445
     19444     19445     19446     19447     19446     19448     19447     19448
     19449     19450     19449     19451     19450     19451     19452     19453
     19452     19454     19453     19454     19455     19456     19455     19457
     19456     19457     19458     19459     19458     19460     19459     19460
     19461     19462     19461     19463     19462     19463     19464     19465
     19464     19466     19465     19466     19467     19468     19467     19469
     19468     19469     19470     19471     19470     19472     19471     19472
     19473     19474     19473     19475     19474     19475     19476     19477
     19476     19478     19477     19478     19479     19480     19479     19481
     19480     19481     19482     19483     19482     19484     19483     19484
     19485     19486     19485     19487     19486     19487     19488     19489
     19488     19490     19489     19490     19491     19492     19491     19493
     19492     19493     19494     19495     19494     19496     19495     19496
     19497     19498     19497     19499     19498     19499     19500     19501
     19500     19502     19501     19502     19503     19504     19503     19505
     19504     19505     19506     19507     19506     19508     19507     19508
     19509     19510     19509     19511     19510     19511     19512     19513
     19512     19514     19513     19514     19515     19516     19515     19517
     19516     19517     19518     19519     19518     19520     19519     19520
     19521     19522     19521     19523     19522     19523     19524     19525
     19524     19526     19525     19526     19527     19528     19527     19529
     19528     19529     19530     19531     19530     19532     19531     19532
     19533     19534     19533     19535     19534     19535     19536     19537
     19536     19538     19537     19538     19539     19540     19539     19541
     19540     19541     19542     19543     19542     19544     19543     19544
     19545     19546     19545     19547     19546     19547     19548     19549
     19548     19550     19549     19550     19551     19552     19551     19553
     19552     19553     19554     19555     19554     19556     19555     19556
     19557     19558     19557     19559     19558     19559     19560     19561
     19560     19562     19561     19562     19563     19564     19563     19565
     19564     19565     19566     19567     19566     19568     19567     19568
     19569     19570     19569     19571     19570     19571     19572     19573
     19572     19574     19573     19574     19575     19576     19575     19577
     19576     19577     19578     19579     19578     19580     19579     19580
     19581     19582     19581     19583     19582     19583     19584     19585
     19584     19586     19585     19586     19587     19588     19587     19589
     19588     19589     19590     19591     19590     19592     19591     19592
     19593     19594     19593     19595     19594     19595     19596     19597
     19596     19598     19597     19598     19599     19600     19599     19601
     19600     19601     19602     19603     19602     19604     19603     19604
     19605     19606     19605     19607     19606     19607     19608     19609
     19608     19610     19609     19610     19611     19612     19611     19613
     19612     19613     19614     19615     19614     19616     19615     19616
     19617     19618     19617     19619     19618     19619     19620     19621
     19620     19622     19621     19622     19623     19624     19623     19625
     19624     19625     19626     19627     19626     19628     19627     19628
     19629     19630     19629     19631     19630     19631     19632     19633
     19632     19634     19633     19634     19635     19636     19635     19637
     19636     19637     19638     19639     19638     19640     19639     19640
     19641     19642     19641     19643     19642     19643     19644     19645
     19644     19646     19645     19646     19647     19648     19647     19649
     19648     19649     19650     19651     19650     19652     19651     19652
     19653     19654     19653     19655     19654     19655     19656     19657
     19656     19658     19657     19658     19659     19660     19659     19661
     19660     19661     19662     19663     19662     19664     19663     19664
     19665     19666     19665     19667     19666     19667     19668     19669
     19668     19670     19669     19670     19671     19672     19671     19673
     19672     19673     19674     19675     19674     19676     19675     19676
     19677     19678     19677     19679     19678     19679     19680     19681
     19680     19682     19681     19682     19683     19684     19683     19685
     19684     19685     19686     19687     19686     19688     19687     19688
     19689     19690     19689     19691     19690     19691     19692     19693
     19692     19694     19693     19694     19695     19696     19695     19697
     19696     19697     19698     19699     19698     19700     19699     19700
     19701     19702     19701     19703     19702     19703     19704     19705
     19704     19706     19705     19706     19707     19708     19707     19709
     19708     19709     19710     19711     19710     19712     19711     19712
     19713     19714     19713     19715     19714     19715     19716     19717
     19716     19718     19717     19718     19719     19720     19719     19721
     19720     19721     19722     19723     19722     19724     19723     19724
     19725     19726     19725     19727     19726     19727     19728     19729
     19728     19730     19729     19730     19731     19732     19731     19733
     19732     19733     19734     19735     19734     19736     19735     19736
     19737     19738     19737     19739     19738     19739     19740     19741
     19740     19742     19741     19742     19743     19744     19743     19745
     19744     19745     19746     19747     19746     19748     19747     19748
     19749     19750     19749     19751     19750     19751     19752     19753
     19752     19754     19753     19754     19755     19756     19755     19757
     19756     19757     19758     19759     19758     19760     19759     19760
     19761     19762     19761     19763     19762     19763     19764     19765
     19764     19766     19765     19766     19767     19768     19767     19769
     19768     19769     19770     19771     19770     19772     19771     19772
     19773     19774     19773     19775     19774     19775     19776     19777
     19776     19778     19777     19778     19779     19780     19779     19781
     19780     19781     19782     19783     19782     19784     19783     19784
     19785     19786     19785     19787     19786     19787     19788     19789
     19788     19790     19789     19790     19791     19792     19791     19793
     19792     19793     19794     19795     19794     19796     19795     19796
     19797     19798     19797     19799     19798     19799     19800     19801
     19800     19802     19801     19802     19803     19804     19803     19805
     19804     19805     19806     19807     19806     19808     19807     19808
     19809     19810     19809     19811     19810     19811     19812     19813
     19812     19814     19813     19814     19815     19816     19815     19817
     19816     19817     19818     19819     19818     19820     19819     19820
     19821     19822     19821     19823     19822     19823     19824     19825
     19824     19826     19825     19826     19827     19828     19827     19829
     19828     19829     19830     19831     19830     19832     19831     19832
     19833     19834     19833     19835     19834     19835     19836     19837
     19836     19838     19837     19838     19839     19840     19839     19841
     19840     19841     19842     19843     19842     19844     19843     19844
     19845     19846     19845     19847     19846     19847     19848     19849
     19848     19850     19849     19850     19851     19852     19851     19853
     19852     19853     19854     19855     19854     19856     19855     19856
     19857     19858     19857     19859     19858     19859     19860     19861
     19860     19862     19861     19862     19863     19864     19863     19865
     19864     19865     19866     19867     19866     19868     19867     19868
     19869     19870     19869     19871     19870     19871     19872     19873
     19872     19874     19873     19874     19875     19876     19875     19877
     19876     19877     19878     19879     19878     19880     19879     19880
     19881     19882     19881     19883     19882     19883     19884     19885
     19884     19886     19885     19886     19887     19888     19887     19889
     19888     19889     19890     19891     19890     19892     19891     19892
     19893     19894     19893     19895     19894     19895     19896     19897
     19896     19898     19897     19898     19899     19900     19899     19901
     19900     19901     19902     19903     19902     19904     19903     19904
     19905     19906     19905     19907     19906     19907     19908     19909
     19908     19910     19909     19910     19911     19912     19911     19913
     19912     19913     19914     19915     19914     19916     19915     19916
     19917     19918     19917     19919     19918     19919     19920     19921
     19920     19922     19921     19922     19923     19924     19923     19925
     19924     19925     19926     19927     19926     19928     19927     19928
     19929     19930     19929     19931     19930     19931     19932     19933
     19932     19934     19933     19934     19935     19936     19935     19937
     19936     19937     19938     19939     19938     19940     19939     19940
     19941     19942     19941     19943     19942     19943     19944     19945
     19944     19946     19945     19946     19947     19948     19947     19949
     19948     19949     19950     19951     19950     19952     19951     19952
     19953     19954     19953     19955     19954     19955     19956     19957
     19956     19958     19957     19958     19959     19960     19959     19961
     19960     19961     19962     19963     19962     19964     19963     19964
     19965     19966     19965     19967     19966     19967     19968     19969
     19968     19970     19969     19970     19971     19972     19971     19973
     19972     19973     19974     19975     19974     19976     19975     19976
     19977     19978     19977     19979     19978     19979     19980     19981
     19980     19982     19981     19982     19983     19984     19983     19985
     19984     19985     19986     19987     19986     19988     19987     19988
     19989     19990     19989     19991     19990     19991     19992     19993
     19992     19994     19993     19994     19995     19996     19995     19997
     19996     19997     19998     19999     19998     20000     19999     20000
     20001     20002     20001     20003     20002     20003     20004     20005
     20004     20006     20005     20006     20007     20008     20007     20009
     20008     20009     20010     20011     20010     20012     20011     20012
     20013     20014     20013     20015     20014     20015     20016     20017
     20016     20018     20017     20018     20019     20020     20019     20021
     20020     20021     20022     20023     20022     20024     20023     20024
     20025     20026     20025     20027     20026     20027     20028     20029
     20028     20030     20029     20030     20031     20032     20031     20033
     20032     20033     20034     20035     20034     20036     20035     20036
     20037     20038     20037     20039     20038     20039     20040     20041
     20040     20042     20041     20042     20043     20044     20043     20045
     20044     20045     20046     20047     20046     20048     20047     20048
     20049     20050     20049     20051     20050     20051     20052     20053
     20052     20054     20053     20054     20055     20056     20055     20057
     20056     20057     20058     20059     20058     20060     20059     20060
     20061     20062     20061     20063     20062     20063     20064     20065
     20064     20066     20065     20066     20067     20068     20067     20069
     20068     20069     20070     20071     20070     20072     20071     20072
     20073     20074     20073     20075     20074     20075     20076     20077
     20076     20078     20077     20078     20079     20080     20079     20081
     20080     20081     20082     20083     20082     20084     20083     20084
     20085     20086     20085     20087     20086     20087     20088     20089
     20088     20090     20089     20090     20091     20092     20091     20093
     20092     20093     20094     20095     20094     20096     20095     20096
     20097     20098     20097     20099     20098     20099     20100     20101
     20100     20102     20101     20102     20103     20104     20103     20105
     20104     20105     20106     20107     20106     20108     20107     20108
     20109     20110     20109     20111     20110     20111     20112     20113
     20112     20114     20113     20114     20115     20116     20115     20117
     20116     20117     20118     20119     20118     20120     20119     20120
     20121     20122     20121     20123     20122     20123     20124     20125
     20124     20126     20125     20126     20127     20128     20127     20129
     20128     20129     20130     20131     20130     20132     20131     20132
     20133     20134     20133     20135     20134     20135     20136     20137
     20136     20138     20137     20138     20139     20140     20139     20141
     20140     20141     20142     20143     20142     20144     20143     20144
     20145     20146     20145     20147     20146     20147     20148     20149
     20148     20150     20149     20150     20151     20152     20151     20153
     20152     20153     20154     20155     20154     20156     20155     20156
     20157     20158     20157     20159     20158     20159     20160     20161
     20160     20162     20161     20162     20163     20164     20163     20165
     20164     20165     20166     20167     20166     20168     20167     20168
     20169     20170     20169     20171     20170     20171     20172     20173
     20172     20174     20173     20174     20175     20176     20175     20177
     20176     20177     20178     20179     20178     20180     20179     20180
     20181     20182     20181     20183     20182     20183     20184     20185
     20184     20186     20185     20186     20187     20188     20187     20189
     20188     20189     20190     20191     20190     20192     20191     20192
     20193     20194     20193     20195     20194     20195     20196     20197
     20196     20198     20197     20198     20199     20200     20199     20201
     20200     20201     20202     20203     20202     20204     20203     20204
     20205     20206     20205     20207     20206     20207     20208     20209
     20208     20210     20209     20210     20211     20212     20211     20213
     20212     20213     20214     20215     20214     20216     20215     20216
     20217     20218     20217     20219     20218     20219     20220     20221
     20220     20222     20221     20222     20223     20224     20223     20225
     20224     20225     20226     20227     20226     20228     20227     20228
     20229     20230     20229     20231     20230     20231     20232     20233
     20232     20234     20233     20234     20235     20236     20235     20237
     20236     20237     20238     20239     20238     20240     20239     20240
     20241     20242     20241     20243     20242     20243     20244     20245
     20244     20246     20245     20246     20247     20248     20247     20249
     20248     20249     20250     20251     20250     20252     20251     20252
     20253     20254     20253     20255     20254     20255     20256     20257
     20256     20258     20257     20258     20259     20260     20259     20261
     20260     20261     20262     20263     20262     20264     20263     20264
     20265     20266     20265     20267     20266     20267     20268     20269
     20268     20270     20269     20270     20271     20272     20271     20273
     20272     20273     20274     20275     20274     20276     20275     20276
     20277     20278     20277     20279     20278     20279     20280     20281
     20280     20282     20281     20282     20283     20284     20283     20285
     20284     20285     20286     20287     20286     20288     20287     20288
     20289     20290     20289     20291     20290     20291     20292     20293
     20292     20294     20293     20294     20295     20296     20295     20297
     20296     20297     20298     20299     20298     20300     20299     20300
     20301     20302     20301     20303     20302     20303     20304     20305
     20304     20306     20305     20306     20307     20308     20307     20309
     20308     20309     20310     20311     20310     20312     20311     20312
     20313     20314     20313     20315     20314     20315     20316     20317
     20316     20318     20317     20318     20319     20320     20319     20321
     20320     20321     20322     20323     20322     20324     20323     20324
     20325     20326     20325     20327     20326     20327     20328     20329
     20328     20330     20329     20330     20331     20332     20331     20333
     20332     20333     20334     20335     20334     20336     20335     20336
     20337     20338     20337     20339     20338     20339     20340     20341
     20340     20342     20341     20342     20343     20344     20343     20345
     20344     20345     20346     20347     20346     20348     20347     20348
     20349     20350     20349     20351     20350     20351     20352     20353
     20352     20354     20353     20354     20355     20356     20355     20357
     20356     20357     20358     20359     20358     20360     20359     20360
     20361     20362     20361     20363     20362     20363     20364     20365
     20364     20366     20365     20366     20367     20368     20367     20369
     20368     20369     20370     20371     20370     20372     20371     20372
     20373     20374     20373     20375     20374     20375     20376     20377
     20376     20378     20377     20378     20379     20380     20379     20381
     20380     20381     20382     20383     20382     20384     20383     20384
     20385     20386     20385     20387     20386     20387     20388     20389
     20388     20390     20389     20390     20391     20392     20391     20393
     20392     20393     20394     20395     20394     20396     20395     20396
     20397     20398     20397     20399     20398     20399     20400     20401
     20400     20402     20401     20402     20403     20404     20403     20405
     20404     20405     20406     20407     20406     20408     20407     20408
     20409     20410     20409     20411     20410     20411     20412     20413
     20412     20414     20413     20414     20415     20416     20415     20417
     20416     20417     20418     20419     20418     20420     20419     20420
     20421     20422     20421     20423     20422     20423     20424     20425
     20424     20426     20425     20426     20427     20428     20427     20429
     20428     20429     20430     20431     20430     20432     20431     20432
     20433     20434     20433     20435     20434     20435     20436     20437
     20436     20438     20437     20438     20439     20440     20439     20441
     20440     20441     20442     20443     20442     20444     20443     20444
     20445     20446     20445     20447     20446     20447     20448     20449
     20448     20450     20449     20450     20451     20452     20451     20453
     20452     20453     20454     20455     20454     20456     20455     20456
     20457     20458     20457     20459     20458     20459     20460     20461
     20460     20462     20461     20462     20463     20464     20463     20465
     20464     20465     20466     20467     20466     20468     20467     20468
     20469     20470     20469     20471     20470     20471     20472     20473
     20472     20474     20473     20474     20475     20476     20475     20477
     20476     20477     20478     20479     20478     20480     20479     20480
     20481     20482     20481     20483     20482     20483     20484     20485
     20484     20486     20485     20486     20487     20488     20487     20489
     20488     20489     20490     20491     20490     20492     20491     20492
     20493     20494     20493     20495     20494     20495     20496     20497
     20496     20498     20497     20498     20499     20500     20499     20501
     20500     20501     20502     20503     20502     20504     20503     20504
     20505     20506     20505     20507     20506     20507     20508     20509
     20508     20510     20509     20510     20511     20512     20511     20513
     20512     20513     20514     20515     20514     20516     20515     20516
     20517     20518     20517     20519     20518     20519     20520     20521
     20520     20522     20521     20522     20523     20524     20523     20525
     20524     20525     20526     20527     20526     20528     20527     20528
     20529     20530     20529     20531     20530     20531     20532     20533
     20532     20534     20533     20534     20535     20536     20535     20537
     20536     20537     20538     20539     20538     20540     20539     20540
     20541     20542     20541     20543     20542     20543     20544     20545
     20544     20546     20545     20546     20547     20548     20547     20549
     20548     20549     20550     20551     20550     20552     20551     20552
     20553     20554     20553     20555     20554     20555     20556     20557
     20556     20558     20557     20558     20559     20560     20559     20561
     20560     20561     20562     20563     20562     20564     20563     20564
     20565     20566     20565     20567     20566     20567     20568     20569
     20568     20570     20569     20570     20571     20572     20571     20573
     20572     20573     20574     20575     20574     20576     20575     20576
     20577     20578     20577     20579     20578     20579     20580     20581
     20580     20582     20581     20582     20583     20584     20583     20585
     20584     20585     20586     20587     20586     20588     20587     20588
     20589     20590     20589     20591     20590     20591     20592     20593
     20592     20594     20593     20594     20595     20596     20595     20597
     20596     20597     20598     20599     20598     20600     20599     20600
     20601     20602     20601     20603     20602     20603     20604     20605
     20604     20606     20605     20606     20607     20608     20607     20609
     20608     20609     20610     20611     20610     20612     20611     20612
     20613     20614     20613     20615     20614     20615     20616     20617
     20616     20618     20617     20618     20619     20620     20619     20621
     20620     20621     20622     20623     20622     20624     20623     20624
     20625     20626     20625     20627     20626     20627     20628     20629
     20628     20630     20629     20630     20631     20632     20631     20633
     20632     20633     20634     20635     20634     20636     20635     20636
     20637     20638     20637     20639     20638     20639     20640     20641
     20640     20642     20641     20642     20643     20644     20643     20645
     20644     20645     20646     20647     20646     20648     20647     20648
     20649     20650     20649     20651     20650     20651     20652     20653
     20652     20654     20653     20654     20655     20656     20655     20657
     20656     20657     20658     20659     20658     20660     20659     20660
     20661     20662     20661     20663     20662     20663     20664     20665
     20664     20666     20665     20666     20667     20668     20667     20669
     20668     20669     20670     20671     20670     20672     20671     20672
     20673     20674     20673     20675     20674     20675     20676     20677
     20676     20678     20677     20678     20679     20680     20679     20681
     20680     20681     20682     20683     20682     20684     20683     20684
     20685     20686     20685     20687     20686     20687     20688     20689
     20688     20690     20689     20690     20691     20692     20691     20693
     20692     20693     20694     20695     20694     20696     20695     20696
     20697     20698     20697     20699     20698     20699     20700     20701
     20700     20702     20701     20702     20703     20704     20703     20705
     20704     20705     20706     20707     20706     20708     20707     20708
     20709     20710     20709     20711     20710     20711     20712     20713
     20712     20714     20713     20714     20715     20716     20715     20717
     20716     20717     20718     20719     20718     20720     20719     20720
     20721     20722     20721     20723     20722     20723     20724     20725
     20724     20726     20725     20726     20727     20728     20727     20729
     20728     20729     20730     20731     20730     20732     20731     20732
     20733     20734     20733     20735     20734     20735     20736     20737
     20736     20738     20737     20738     20739     20740     20739     20741
     20740     20741     20742     20743     20742     20744     20743     20744
     20745     20746     20745     20747     20746     20747     20748     20749
     20748     20750     20749     20750     20751     20752     20751     20753
     20752     20753     20754     20755     20754     20756     20755     20756
     20757     20758     20757     20759     20758     20759     20760     20761
     20760     20762     20761     20762     20763     20764     20763     20765
     20764     20765     20766     20767     20766     20768     20767     20768
     20769     20770     20769     20771     20770     20771     20772     20773
     20772     20774     20773     20774     20775     20776     20775     20777
     20776     20777     20778     20779     20778     20780     20779     20780
     20781     20782     20781     20783     20782     20783     20784     20785
     20784     20786     20785     20786     20787     20788     20787     20789
     20788     20789     20790     20791     20790     20792     20791     20792
     20793     20794     20793     20795     20794     20795     20796     20797
     20796     20798     20797     20798     20799     20800     20799     20801
     20800     20801     20802     20803     20802     20804     20803     20804
     20805     20806     20805     20807     20806     20807     20808     20809
     20808     20810     20809     20810     20811     20812     20811     20813
     20812     20813     20814     20815     20814     20816     20815     20816
     20817     20818     20817     20819     20818     20819     20820     20821
     20820     20822     20821     20822     20823     20824     20823     20825
     20824     20825     20826     20827     20826     20828     20827     20828
     20829     20830     20829     20831     20830     20831     20832     20833
     20832     20834     20833     20834     20835     20836     20835     20837
     20836     20837     20838     20839     20838     20840     20839     20840
     20841     20842     20841     20843     20842     20843     20844     20845
     20844     20846     20845     20846     20847     20848     20847     20849
     20848     20849     20850     20851     20850     20852     20851     20852
     20853     20854     20853     20855     20854     20855     20856     20857
     20856     20858     20857     20858     20859     20860     20859     20861
     20860     20861     20862     20863     20862     20864     20863     20864
     20865     20866     20865     20867     20866     20867     20868     20869
     20868     20870     20869     20870     20871     20872     20871     20873
     20872     20873     20874     20875     20874     20876     20875     20876
     20877     20878     20877     20879     20878     20879     20880     20881
     20880     20882     20881     20882     20883     20884     20883     20885
     20884     20885     20886     20887     20886     20888     20887     20888
     20889     20890     20889     20891     20890     20891     20892     20893
     20892     20894     20893     20894     20895     20896     20895     20897
     20896     20897     20898     20899     20898     20900     20899     20900
     20901     20902     20901     20903     20902     20903     20904     20905
     20904     20906     20905     20906     20907     20908     20907     20909
     20908     20909     20910     20911     20910     20912     20911     20912
     20913     20914     20913     20915     20914     20915     20916     20917
     20916     20918     20917     20918     20919     20920     20919     20921
     20920     20921     20922     20923     20922     20924     20923     20924
     20925     20926     20925     20927     20926     20927     20928     20929
     20928     20930     20929     20930     20931     20932     20931     20933
     20932     20933     20934     20935     20934     20936     20935     20936
     20937     20938     20937     20939     20938     20939     20940     20941
     20940     20942     20941     20942     20943     20944     20943     20945
     20944     20945     20946     20947     20946     20948     20947     20948
     20949     20950     20949     20951     20950     20951     20952     20953
     20952     20954     20953     20954     20955     20956     20955     20957
     20956     20957     20958     20959     20958     20960     20959     20960
     20961     20962     20961     20963     20962     20963     20964     20965
     20964     20966     20965     20966     20967     20968     20967     20969
     20968     20969     20970     20971     20970     20972     20971     20972
     20973     20974     20973     20975     20974     20975     20976     20977
     20976     20978     20977     20978     20979     20980     20979     20981
     20980     20981     20982     20983     20982     20984     20983     20984
     20985     20986     20985     20987     20986     20987     20988     20989
     20988     20990     20989     20990     20991     20992     20991     20993
     20992     20993     20994     20995     20994     20996     20995     20996
     20997     20998     20997     20999     20998     20999     21000     21001
     21000     21002     21001     21002     21003     21004     21003     21005
     21004     21005     21006     21007     21006     21008     21007     21008
     21009     21010     21009     21011     21010     21011     21012     21013
     21012     21014     21013     21014     21015     21016     21015     21017
     21016     21017     21018     21019     21018     21020     21019     21020
     21021     21022     21021     21023     21022     21023     21024     21025
     21024     21026     21025     21026     21027     21028     21027     21029
     21028     21029     21030     21031     21030     21032     21031     21032
     21033     21034     21033     21035     21034     21035     21036     21037
     21036     21038     21037     21038     21039     21040     21039     21041
     21040     21041     21042     21043     21042     21044     21043     21044
     21045     21046     21045     21047     21046     21047     21048     21049
     21048     21050     21049     21050     21051     21052     21051     21053
     21052     21053     21054     21055     21054     21056     21055     21056
     21057     21058     21057     21059     21058     21059     21060     21061
     21060     21062     21061     21062     21063     21064     21063     21065
     21064     21065     21066     21067     21066     21068     21067     21068
     21069     21070     21069     21071     21070     21071     21072     21073
     21072     21074     21073     21074     21075     21076     21075     21077
     21076     21077     21078     21079     21078     21080     21079     21080
     21081     21082     21081     21083     21082     21083     21084     21085
     21084     21086     21085     21086     21087     21088     21087     21089
     21088     21089     21090     21091     21090     21092     21091     21092
     21093     21094     21093     21095     21094     21095     21096     21097
     21096     21098     21097     21098     21099     21100     21099     21101
     21100     21101     21102     21103     21102     21104     21103     21104
     21105     21106     21105     21107     21106     21107     21108     21109
     21108     21110     21109     21110     21111     21112     21111     21113
     21112     21113     21114     21115     21114     21116     21115     21116
     21117     21118     21117     21119     21118     21119     21120     21121
     21120     21122     21121     21122     21123     21124     21123     21125
     21124     21125     21126     21127     21126     21128     21127     21128
     21129     21130     21129     21131     21130     21131     21132     21133
     21132     21134     21133     21134     21135     21136     21135     21137
     21136     21137     21138     21139     21138     21140     21139     21140
     21141     21142     21141     21143     21142     21143     21144     21145
     21144     21146     21145     21146     21147     21148     21147     21149
     21148     21149     21150     21151     21150     21152     21151     21152
     21153     21154     21153     21155     21154     21155     21156     21157
     21156     21158     21157     21158     21159     21160     21159     21161
     21160     21161     21162     21163     21162     21164     21163     21164
     21165     21166     21165     21167     21166     21167     21168     21169
     21168     21170     21169     21170     21171     21172     21171     21173
     21172     21173     21174     21175     21174     21176     21175     21176
     21177     21178     21177     21179     21178     21179     21180     21181
     21180     21182     21181     21182     21183     21184     21183     21185
     21184     21185     21186     21187     21186     21188     21187     21188
     21189     21190     21189     21191     21190     21191     21192     21193
     21192     21194     21193     21194     21195     21196     21195     21197
     21196     21197     21198     21199     21198     21200     21199     21200
     21201     21202     21201     21203     21202     21203     21204     21205
     21204     21206     21205     21206     21207     21208     21207     21209
     21208     21209     21210     21211     21210     21212     21211     21212
     21213     21214     21213     21215     21214     21215     21216     21217
     21216     21218     21217     21218     21219     21220     21219     21221
     21220     21221     21222     21223     21222     21224     21223     21224
     21225     21226     21225     21227     21226     21227     21228     21229
     21228     21230     21229     21230     21231     21232     21231     21233
     21232     21233     21234     21235     21234     21236     21235     21236
     21237     21238     21237     21239     21238     21239     21240     21241
     21240     21242     21241     21242     21243     21244     21243     21245
     21244     21245     21246     21247     21246     21248     21247     21248
     21249     21250     21249     21251     21250     21251     21252     21253
     21252     21254     21253     21254     21255     21256     21255     21257
     21256     21257     21258     21259     21258     21260     21259     21260
     21261     21262     21261     21263     21262     21263     21264     21265
     21264     21266     21265     21266     21267     21268     21267     21269
     21268     21269     21270     21271     21270     21272     21271     21272
     21273     21274     21273     21275     21274     21275     21276     21277
     21276     21278     21277     21278     21279     21280     21279     21281
     21280     21281     21282     21283     21282     21284     21283     21284
     21285     21286     21285     21287     21286     21287     21288     21289
     21288     21290     21289     21290     21291     21292     21291     21293
     21292     21293     21294     21295     21294     21296     21295     21296
     21297     21298     21297     21299     21298     21299     21300     21301
     21300     21302     21301     21302     21303     21304     21303     21305
     21304     21305     21306     21307     21306     21308     21307     21308
     21309     21310     21309     21311     21310     21311     21312     21313
     21312     21314     21313     21314     21315     21316     21315     21317
     21316     21317     21318     21319     21318     21320     21319     21320
     21321     21322     21321     21323     21322     21323     21324     21325
     21324     21326     21325     21326     21327     21328     21327     21329
     21328     21329     21330     21331     21330     21332     21331     21332
     21333     21334     21333     21335     21334     21335     21336     21337
     21336     21338     21337     21338     21339     21340     21339     21341
     21340     21341     21342     21343     21342     21344     21343     21344
     21345     21346     21345     21347     21346     21347     21348     21349
     21348     21350     21349     21350     21351     21352     21351     21353
     21352     21353     21354     21355     21354     21356     21355     21356
     21357     21358     21357     21359     21358     21359     21360     21361
     21360     21362     21361     21362     21363     21364     21363     21365
     21364     21365     21366     21367     21366     21368     21367     21368
     21369     21370     21369     21371     21370     21371     21372     21373
     21372     21374     21373     21374     21375     21376     21375     21377
     21376     21377     21378     21379     21378     21380     21379     21380
     21381     21382     21381     21383     21382     21383     21384     21385
     21384     21386     21385     21386     21387     21388     21387     21389
     21388     21389     21390     21391     21390     21392     21391     21392
     21393     21394     21393     21395     21394     21395     21396     21397
     21396     21398     21397     21398     21399     21400     21399     21401
     21400     21401     21402     21403     21402     21404     21403     21404
     21405     21406     21405     21407     21406     21407     21408     21409
     21408     21410     21409     21410     21411     21412     21411     21413
     21412     21413     21414     21415     21414     21416     21415     21416
     21417     21418     21417     21419     21418     21419     21420     21421
     21420     21422     21421     21422     21423     21424     21423     21425
     21424     21425     21426     21427     21426     21428     21427     21428
     21429     21430     21429     21431     21430     21431     21432     21433
     21432     21434     21433     21434     21435     21436     21435     21437
     21436     21437     21438     21439     21438     21440     21439     21440
     21441     21442     21441     21443     21442     21443     21444     21445
     21444     21446     21445     21446     21447     21448     21447     21449
     21448     21449     21450     21451     21450     21452     21451     21452
     21453     21454     21453     21455     21454     21455     21456     21457
     21456     21458     21457     21458     21459     21460     21459     21461
     21460     21461     21462     21463     21462     21464     21463     21464
     21465     21466     21465     21467     21466     21467     21468     21469
     21468     21470     21469     21470     21471     21472     21471     21473
     21472     21473     21474     21475     21474     21476     21475     21476
     21477     21478     21477     21479     21478     21479     21480     21481
     21480     21482     21481     21482     21483     21484     21483     21485
     21484     21485     21486     21487     21486     21488     21487     21488
     21489     21490     21489     21491     21490     21491     21492     21493
     21492     21494     21493     21494     21495     21496     21495     21497
     21496     21497     21498     21499     21498     21500     21499     21500
     21501     21502     21501     21503     21502     21503     21504     21505
     21504     21506     21505     21506     21507     21508     21507     21509
     21508     21509     21510     21511     21510     21512     21511     21512
     21513     21514     21513     21515     21514     21515     21516     21517
     21516     21518     21517     21518     21519     21520     21519     21521
     21520     21521     21522     21523     21522     21524     21523     21524
     21525     21526     21525     21527     21526     21527     21528     21529
     21528     21530     21529     21530     21531     21532     21531     21533
     21532     21533     21534     21535     21534     21536     21535     21536
     21537     21538     21537     21539     21538     21539     21540     21541
     21540     21542     21541     21542     21543     21544     21543     21545
     21544     21545     21546     21547     21546     21548     21547     21548
     21549     21550     21549     21551     21550     21551     21552     21553
     21552     21554     21553     21554     21555     21556     21555     21557
     21556     21557     21558     21559     21558     21560     21559     21560
     21561     21562     21561     21563     21562     21563     21564     21565
     21564     21566     21565     21566     21567     21568     21567     21569
     21568     21569     21570     21571     21570     21572     21571     21572
     21573     21574     21573     21575     21574     21575     21576     21577
     21576     21578     21577     21578     21579     21580     21579     21581
     21580     21581     21582     21583     21582     21584     21583     21584
     21585     21586     21585     21587     21586     21587     21588     21589
     21588     21590     21589     21590     21591     21592     21591     21593
     21592     21593     21594     21595     21594     21596     21595     21596
     21597     21598     21597     21599     21598     21599     21600     21601
     21600     21602     21601     21602     21603     21604     21603     21605
     21604     21605     21606     21607     21606     21608     21607     21608
     21609     21610     21609     21611     21610     21611     21612     21613
     21612     21614     21613     21614     21615     21616     21615     21617
     21616     21617     21618     21619     21618     21620     21619     21620
     21621     21622     21621     21623     21622     21623     21624     21625
     21624     21626     21625     21626     21627     21628     21627     21629
     21628     21629     21630     21631     21630     21632     21631     21632
     21633     21634     21633     21635     21634     21635     21636     21637
     21636     21638     21637     21638     21639     21640     21639     21641
     21640     21641     21642     21643     21642     21644     21643     21644
     21645     21646     21645     21647     21646     21647     21648     21649
     21648     21650     21649     21650     21651     21652     21651     21653
     21652     21653     21654     21655     21654     21656     21655     21656
     21657     21658     21657     21659     21658     21659     21660     21661
     21660     21662     21661     21662     21663     21664     21663     21665
     21664     21665     21666     21667     21666     21668     21667     21668
     21669     21670     21669     21671     21670     21671     21672     21673
     21672     21674     21673     21674     21675     21676     21675     21677
     21676     21677     21678     21679     21678     21680     21679     21680
     21681     21682     21681     21683     21682     21683     21684     21685
     21684     21686     21685     21686     21687     21688     21687     21689
     21688     21689     21690     21691     21690     21692     21691     21692
     21693     21694     21693     21695     21694     21695     21696     21697
     21696     21698     21697     21698     21699     21700     21699     21701
     21700     21701     21702     21703     21702     21704     21703     21704
     21705     21706     21705     21707     21706     21707     21708     21709
     21708     21710     21709     21710     21711     21712     21711     21713
     21712     21713     21714     21715     21714     21716     21715     21716
     21717     21718     21717     21719     21718     21719     21720     21721
     21720     21722     21721     21722     21723     21724     21723     21725
     21724     21725     21726     21727     21726     21728     21727     21728
     21729     21730     21729     21731     21730     21731     21732     21733
     21732     21734     21733     21734     21735     21736     21735     21737
     21736     21737     21738     21739     21738     21740     21739     21740
     21741     21742     21741     21743     21742     21743     21744     21745
     21744     21746     21745     21746     21747     21748     21747     21749
     21748     21749     21750     21751     21750     21752     21751     21752
     21753     21754     21753     21755     21754     21755     21756     21757
     21756     21758     21757     21758     21759     21760     21759     21761
     21760     21761     21762     21763     21762     21764     21763     21764
     21765     21766     21765     21767     21766     21767     21768     21769
     21768     21770     21769     21770     21771     21772     21771     21773
     21772     21773     21774     21775     21774     21776     21775     21776
     21777     21778     21777     21779     21778     21779     21780     21781
     21780     21782     21781     21782     21783     21784     21783     21785
     21784     21785     21786     21787     21786     21788     21787     21788
     21789     21790     21789     21791     21790     21791     21792     21793
     21792     21794     21793     21794     21795     21796     21795     21797
     21796     21797     21798     21799     21798     21800     21799     21800
     21801     21802     21801     21803     21802     21803     21804     21805
     21804     21806     21805     21806     21807     21808     21807     21809
     21808     21809     21810     21811     21810     21812     21811     21812
     21813     21814     21813     21815     21814     21815     21816     21817
     21816     21818     21817     21818     21819     21820     21819     21821
     21820     21821     21822     21823     21822     21824     21823     21824
     21825     21826     21825     21827     21826     21827     21828     21829
     21828     21830     21829     21830     21831     21832     21831     21833
     21832     21833     21834     21835     21834     21836     21835     21836
     21837     21838     21837     21839     21838     21839     21840     21841
     21840     21842     21841     21842     21843     21844     21843     21845
     21844     21845     21846     21847     21846     21848     21847     21848
     21849     21850     21849     21851     21850     21851     21852     21853
     21852     21854     21853     21854     21855     21856     21855     21857
     21856     21857     21858     21859     21858     21860     21859     21860
     21861     21862     21861     21863     21862     21863     21864     21865
     21864     21866     21865     21866     21867     21868     21867     21869
     21868     21869     21870     21871     21870     21872     21871     21872
     21873     21874     21873     21875     21874     21875     21876     21877
     21876     21878     21877     21878     21879     21880     21879     21881
     21880     21881     21882     21883     21882     21884     21883     21884
     21885     21886     21885     21887     21886     21887     21888     21889
     21888     21890     21889     21890     21891     21892     21891     21893
     21892     21893     21894     21895     21894     21896     21895     21896
     21897     21898     21897     21899     21898     21899     21900     21901
     21900     21902     21901     21902     21903     21904     21903     21905
     21904     21905     21906     21907     21906     21908     21907     21908
     21909     21910     21909     21911     21910     21911     21912     21913
     21912     21914     21913     21914     21915     21916     21915     21917
     21916     21917     21918     21919     21918     21920     21919     21920
     21921     21922     21921     21923     21922     21923     21924     21925
     21924     21926     21925     21926     21927     21928     21927     21929
     21928     21929     21930     21931     21930     21932     21931     21932
     21933     21934     21933     21935     21934     21935     21936     21937
     21936     21938     21937     21938     21939     21940     21939     21941
     21940     21941     21942     21943     21942     21944     21943     21944
     21945     21946     21945     21947     21946     21947     21948     21949
     21948     21950     21949     21950     21951     21952     21951     21953
     21952     21953     21954     21955     21954     21956     21955     21956
     21957     21958     21957     21959     21958     21959     21960     21961
     21960     21962     21961     21962     21963     21964     21963     21965
     21964     21965     21966     21967     21966     21968     21967     21968
     21969     21970     21969     21971     21970     21971     21972     21973
     21972     21974     21973     21974     21975     21976     21975     21977
     21976     21977     21978     21979     21978     21980     21979     21980
     21981     21982     21981     21983     21982     21983     21984     21985
     21984     21986     21985     21986     21987     21988     21987     21989
     21988     21989     21990     21991     21990     21992     21991     21992
     21993     21994     21993     21995     21994     21995     21996     21997
     21996     21998     21997     21998     21999     22000     21999     22001
     22000     22001     22002     22003     22002     22004     22003     22004
     22005     22006     22005     22007     22006     22007     22008     22009
     22008     22010     22009     22010     22011     22012     22011     22013
     22012     22013     22014     22015     22014     22016     22015     22016
     22017     22018     22017     22019     22018     22019     22020     22021
     22020     22022     22021     22022     22023     22024     22023     22025
     22024     22025     22026     22027     22026     22028     22027     22028
     22029     22030     22029     22031     22030     22031     22032     22033
     22032     22034     22033     22034     22035     22036     22035     22037
     22036     22037     22038     22039     22038     22040     22039     22040
     22041     22042     22041     22043     22042     22043     22044     22045
     22044     22046     22045     22046     22047     22048     22047     22049
     22048     22049     22050     22051     22050     22052     22051     22052
     22053     22054     22053     22055     22054     22055     22056     22057
     22056     22058     22057     22058     22059     22060     22059     22061
     22060     22061     22062     22063     22062     22064     22063     22064
     22065     22066     22065     22067     22066     22067     22068     22069
     22068     22070     22069     22070     22071     22072     22071     22073
     22072     22073     22074     22075     22074     22076     22075     22076
     22077     22078     22077     22079     22078     22079     22080     22081
     22080     22082     22081     22082     22083     22084     22083     22085
     22084     22085     22086     22087     22086     22088     22087     22088
     22089     22090     22089     22091     22090     22091     22092     22093
     22092     22094     22093     22094     22095     22096     22095     22097
     22096     22097     22098     22099     22098     22100     22099     22100
     22101     22102     22101     22103     22102     22103     22104     22105
     22104     22106     22105     22106     22107     22108     22107     22109
     22108     22109     22110     22111     22110     22112     22111     22112
     22113     22114     22113     22115     22114     22115     22116     22117
     22116     22118     22117     22118     22119     22120     22119     22121
     22120     22121     22122     22123     22122     22124     22123     22124
     22125     22126     22125     22127     22126     22127     22128     22129
     22128     22130     22129     22130     22131     22132     22131     22133
     22132     22133     22134     22135     22134     22136     22135     22136
     22137     22138     22137     22139     22138     22139     22140     22141
     22140     22142     22141     22142     22143     22144     22143     22145
     22144     22145     22146     22147     22146     22148     22147     22148
     22149     22150     22149     22151     22150     22151     22152     22153
     22152     22154     22153     22154     22155     22156     22155     22157
     22156     22157     22158     22159     22158     22160     22159     22160
     22161     22162     22161     22163     22162     22163     22164     22165
     22164     22166     22165     22166     22167     22168     22167     22169
     22168     22169     22170     22171     22170     22172     22171     22172
     22173     22174     22173     22175     22174     22175     22176     22177
     22176     22178     22177     22178     22179     22180     22179     22181
     22180     22181     22182     22183     22182     22184     22183     22184
     22185     22186     22185     22187     22186     22187     22188     22189
     22188     22190     22189     22190     22191     22192     22191     22193
     22192     22193     22194     22195     22194     22196     22195     22196
     22197     22198     22197     22199     22198     22199     22200     22201
     22200     22202     22201     22202     22203     22204     22203     22205
     22204     22205     22206     22207     22206     22208     22207     22208
     22209     22210     22209     22211     22210     22211     22212     22213
     22212     22214     22213     22214     22215     22216     22215     22217
     22216     22217     22218     22219     22218     22220     22219     22220
     22221     22222     22221     22223     22222     22223     22224     22225
     22224     22226     22225     22226     22227     22228     22227     22229
     22228     22229     22230     22231     22230     22232     22231     22232
     22233     22234     22233     22235     22234     22235     22236     22237
     22236     22238     22237     22238     22239     22240     22239     22241
     22240     22241     22242     22243     22242     22244     22243     22244
     22245     22246     22245     22247     22246     22247     22248     22249
     22248     22250     22249     22250     22251     22252     22251     22253
     22252     22253     22254     22255     22254     22256     22255     22256
     22257     22258     22257     22259     22258     22259     22260     22261
     22260     22262     22261     22262     22263     22264     22263     22265
     22264     22265     22266     22267     22266     22268     22267     22268
     22269     22270     22269     22271     22270     22271     22272     22273
     22272     22274     22273     22274     22275     22276     22275     22277
     22276     22277     22278     22279     22278     22280     22279     22280
     22281     22282     22281     22283     22282     22283     22284     22285
     22284     22286     22285     22286     22287     22288     22287     22289
     22288     22289     22290     22291     22290     22292     22291     22292
     22293     22294     22293     22295     22294     22295     22296     22297
     22296     22298     22297     22298     22299     22300     22299     22301
     22300     22301     22302     22303     22302     22304     22303     22304
     22305     22306     22305     22307     22306     22307     22308     22309
     22308     22310     22309     22310     22311     22312     22311     22313
     22312     22313     22314     22315     22314     22316     22315     22316
     22317     22318     22317     22319     22318     22319     22320     22321
     22320     22322     22321     22322     22323     22324     22323     22325
     22324     22325     22326     22327     22326     22328     22327     22328
     22329     22330     22329     22331     22330     22331     22332     22333
     22332     22334     22333     22334     22335     22336     22335     22337
     22336     22337     22338     22339     22338     22340     22339     22340
     22341     22342     22341     22343     22342     22343     22344     22345
     22344     22346     22345     22346     22347     22348     22347     22349
     22348     22349     22350     22351     22350     22352     22351     22352
     22353     22354     22353     22355     22354     22355     22356     22357
     22356     22358     22357     22358     22359     22360     22359     22361
     22360     22361     22362     22363     22362     22364     22363     22364
     22365     22366     22365     22367     22366     22367     22368     22369
     22368     22370     22369     22370     22371     22372     22371     22373
     22372     22373     22374     22375     22374     22376     22375     22376
     22377     22378     22377     22379     22378     22379     22380     22381
     22380     22382     22381     22382     22383     22384     22383     22385
     22384     22385     22386     22387     22386     22388     22387     22388
     22389     22390     22389     22391     22390     22391     22392     22393
     22392     22394     22393     22394     22395     22396     22395     22397
     22396     22397     22398     22399     22398     22400     22399     22400
     22401     22402     22401     22403     22402     22403     22404     22405
     22404     22406     22405     22406     22407     22408     22407     22409
     22408     22409     22410     22411     22410     22412     22411     22412
     22413     22414     22413     22415     22414     22415     22416     22417
     22416     22418     22417     22418     22419     22420     22419     22421
     22420     22421     22422     22423     22422     22424     22423     22424
     22425     22426     22425     22427     22426     22427     22428     22429
     22428     22430     22429     22430     22431     22432     22431     22433
     22432     22433     22434     22435     22434     22436     22435     22436
     22437     22438     22437     22439     22438     22439     22440     22441
     22440     22442     22441     22442     22443     22444     22443     22445
     22444     22445     22446     22447     22446     22448     22447     22448
     22449     22450     22449     22451     22450     22451     22452     22453
     22452     22454     22453     22454     22455     22456     22455     22457
     22456     22457     22458     22459     22458     22460     22459     22460
     22461     22462     22461     22463     22462     22463     22464     22465
     22464     22466     22465     22466     22467     22468     22467     22469
     22468     22469     22470     22471     22470     22472     22471     22472
     22473     22474     22473     22475     22474     22475     22476     22477
     22476     22478     22477     22478     22479     22480     22479     22481
     22480     22481     22482     22483     22482     22484     22483     22484
     22485     22486     22485     22487     22486     22487     22488     22489
     22488     22490     22489     22490     22491     22492     22491     22493
     22492     22493     22494     22495     22494     22496     22495     22496
     22497     22498     22497     22499     22498     22499     22500     22501
     22500     22502     22501     22502     22503     22504     22503     22505
     22504     22505     22506     22507     22506     22508     22507     22508
     22509     22510     22509     22511     22510     22511     22512     22513
     22512     22514     22513     22514     22515     22516     22515     22517
     22516     22517     22518     22519     22518     22520     22519     22520
     22521     22522     22521     22523     22522     22523     22524     22525
     22524     22526     22525     22526     22527     22528     22527     22529
     22528     22529     22530     22531     22530     22532     22531     22532
     22533     22534     22533     22535     22534     22535     22536     22537
     22536     22538     22537     22538     22539     22540     22539     22541
     22540     22541     22542     22543     22542     22544     22543     22544
     22545     22546     22545     22547     22546     22547     22548     22549
     22548     22550     22549     22550     22551     22552     22551     22553
     22552     22553     22554     22555     22554     22556     22555     22556
     22557     22558     22557     22559     22558     22559     22560     22561
     22560     22562     22561     22562     22563     22564     22563     22565
     22564     22565     22566     22567     22566     22568     22567     22568
     22569     22570     22569     22571     22570     22571     22572     22573
     22572     22574     22573     22574     22575     22576     22575     22577
     22576     22577     22578     22579     22578     22580     22579     22580
     22581     22582     22581     22583     22582     22583     22584     22585
     22584     22586     22585     22586     22587     22588     22587     22589
     22588     22589     22590     22591     22590     22592     22591     22592
     22593     22594     22593     22595     22594     22595     22596     22597
     22596     22598     22597     22598     22599     22600     22599     22601
     22600     22601     22602     22603     22602     22604     22603     22604
     22605     22606     22605     22607     22606     22607     22608     22609
     22608     22610     22609     22610     22611     22612     22611     22613
     22612     22613     22614     22615     22614     22616     22615     22616
     22617     22618     22617     22619     22618     22619     22620     22621
     22620     22622     22621     22622     22623     22624     22623     22625
     22624     22625     22626     22627     22626     22628     22627     22628
     22629     22630     22629     22631     22630     22631     22632     22633
     22632     22634     22633     22634     22635     22636     22635     22637
     22636     22637     22638     22639     22638     22640     22639     22640
     22641     22642     22641     22643     22642     22643     22644     22645
     22644     22646     22645     22646     22647     22648     22647     22649
     22648     22649     22650     22651     22650     22652     22651     22652
     22653     22654     22653     22655     22654     22655     22656     22657
     22656     22658     22657     22658     22659     22660     22659     22661
     22660     22661     22662     22663     22662     22664     22663     22664
     22665     22666     22665     22667     22666     22667     22668     22669
     22668     22670     22669     22670     22671     22672     22671     22673
     22672     22673     22674     22675     22674     22676     22675     22676
     22677     22678     22677     22679     22678     22679     22680     22681
     22680     22682     22681     22682     22683     22684     22683     22685
     22684     22685     22686     22687     22686     22688     22687     22688
     22689     22690     22689     22691     22690     22691     22692     22693
     22692     22694     22693     22694     22695     22696     22695     22697
     22696     22697     22698     22699     22698     22700     22699     22700
     22701     22702     22701     22703     22702     22703     22704     22705
     22704     22706     22705     22706     22707     22708     22707     22709
     22708     22709     22710     22711     22710     22712     22711     22712
     22713     22714     22713     22715     22714     22715     22716     22717
     22716     22718     22717     22718     22719     22720     22719     22721
     22720     22721     22722     22723     22722     22724     22723     22724
     22725     22726     22725     22727     22726     22727     22728     22729
     22728     22730     22729     22730     22731     22732     22731     22733
     22732     22733     22734     22735     22734     22736     22735     22736
     22737     22738     22737     22739     22738     22739     22740     22741
     22740     22742     22741     22742     22743     22744     22743     22745
     22744     22745     22746     22747     22746     22748     22747     22748
     22749     22750     22749     22751     22750     22751     22752     22753
     22752     22754     22753     22754     22755     22756     22755     22757
     22756     22757     22758     22759     22758     22760     22759     22760
     22761     22762     22761     22763     22762     22763     22764     22765
     22764     22766     22765     22766     22767     22768     22767     22769
     22768     22769     22770     22771     22770     22772     22771     22772
     22773     22774     22773     22775     22774     22775     22776     22777
     22776     22778     22777     22778     22779     22780     22779     22781
     22780     22781     22782     22783     22782     22784     22783     22784
     22785     22786     22785     22787     22786     22787     22788     22789
     22788     22790     22789     22790     22791     22792     22791     22793
     22792     22793     22794     22795     22794     22796     22795     22796
     22797     22798     22797     22799     22798     22799     22800     22801
     22800     22802     22801     22802     22803     22804     22803     22805
     22804     22805     22806     22807     22806     22808     22807     22808
     22809     22810     22809     22811     22810     22811     22812     22813
     22812     22814     22813     22814     22815     22816     22815     22817
     22816     22817     22818     22819     22818     22820     22819     22820
     22821     22822     22821     22823     22822     22823     22824     22825
     22824     22826     22825     22826     22827     22828     22827     22829
     22828     22829     22830     22831     22830     22832     22831     22832
     22833     22834     22833     22835     22834     22835     22836     22837
     22836     22838     22837     22838     22839     22840     22839     22841
     22840     22841     22842     22843     22842     22844     22843     22844
     22845     22846     22845     22847     22846     22847     22848     22849
     22848     22850     22849     22850     22851     22852     22851     22853
     22852     22853     22854     22855     22854     22856     22855     22856
     22857     22858     22857     22859     22858     22859     22860     22861
     22860     22862     22861     22862     22863     22864     22863     22865
     22864     22865     22866     22867     22866     22868     22867     22868
     22869     22870     22869     22871     22870     22871     22872     22873
     22872     22874     22873     22874     22875     22876     22875     22877
     22876     22877     22878     22879     22878     22880     22879     22880
     22881     22882     22881     22883     22882     22883     22884     22885
     22884     22886     22885     22886     22887     22888     22887     22889
     22888     22889     22890     22891     22890     22892     22891     22892
     22893     22894     22893     22895     22894     22895     22896     22897
     22896     22898     22897     22898     22899     22900     22899     22901
     22900     22901     22902     22903     22902     22904     22903     22904
     22905     22906     22905     22907     22906     22907     22908     22909
     22908     22910     22909     22910     22911     22912     22911     22913
     22912     22913     22914     22915     22914     22916     22915     22916
     22917     22918     22917     22919     22918     22919     22920     22921
     22920     22922     22921     22922     22923     22924     22923     22925
     22924     22925     22926     22927     22926     22928     22927     22928
     22929     22930     22929     22931     22930     22931     22932     22933
     22932     22934     22933     22934     22935     22936     22935     22937
     22936     22937     22938     22939     22938     22940     22939     22940
     22941     22942     22941     22943     22942     22943     22944     22945
     22944     22946     22945     22946     22947     22948     22947     22949
     22948     22949     22950     22951     22950     22952     22951     22952
     22953     22954     22953     22955     22954     22955     22956     22957
     22956     22958     22957     22958     22959     22960     22959     22961
     22960     22961     22962     22963     22962     22964     22963     22964
     22965     22966     22965     22967     22966     22967     22968     22969
     22968     22970     22969     22970     22971     22972     22971     22973
     22972     22973     22974     22975     22974     22976     22975     22976
     22977     22978     22977     22979     22978     22979     22980     22981
     22980     22982     22981     22982     22983     22984     22983     22985
     22984     22985     22986     22987     22986     22988     22987     22988
     22989     22990     22989     22991     22990     22991     22992     22993
     22992     22994     22993     22994     22995     22996     22995     22997
     22996     22997     22998     22999     22998     23000     22999     23000
     23001     23002     23001     23003     23002     23003     23004     23005
     23004     23006     23005     23006     23007     23008     23007     23009
     23008     23009     23010     23011     23010     23012     23011     23012
     23013     23014     23013     23015     23014     23015     23016     23017
     23016     23018     23017     23018     23019     23020     23019     23021
     23020     23021     23022     23023     23022     23024     23023     23024
     23025     23026     23025     23027     23026     23027     23028     23029
     23028     23030     23029     23030     23031     23032     23031     23033
     23032     23033     23034     23035     23034     23036     23035     23036
     23037     23038     23037     23039     23038     23039     23040     23041
     23040     23042     23041     23042     23043     23044     23043     23045
     23044     23045     23046     23047     23046     23048     23047     23048
     23049     23050     23049     23051     23050     23051     23052     23053
     23052     23054     23053     23054     23055     23056     23055     23057
     23056     23057     23058     23059     23058     23060     23059     23060
     23061     23062     23061     23063     23062     23063     23064     23065
     23064     23066     23065     23066     23067     23068     23067     23069
     23068     23069     23070     23071     23070     23072     23071     23072
     23073     23074     23073     23075     23074     23075     23076     23077
     23076     23078     23077     23078     23079     23080     23079     23081
     23080     23081     23082     23083     23082     23084     23083     23084
     23085     23086     23085     23087     23086     23087     23088     23089
     23088     23090     23089     23090     23091     23092     23091     23093
     23092     23093     23094     23095     23094     23096     23095     23096
     23097     23098     23097     23099     23098     23099     23100     23101
     23100     23102     23101     23102     23103     23104     23103     23105
     23104     23105     23106     23107     23106     23108     23107     23108
     23109     23110     23109     23111     23110     23111     23112     23113
     23112     23114     23113     23114     23115     23116     23115     23117
     23116     23117     23118     23119     23118     23120     23119     23120
     23121     23122     23121     23123     23122     23123     23124     23125
     23124     23126     23125     23126     23127     23128     23127     23129
     23128     23129     23130     23131     23130     23132     23131     23132
     23133     23134     23133     23135     23134     23135     23136     23137
     23136     23138     23137     23138     23139     23140     23139     23141
     23140     23141     23142     23143     23142     23144     23143     23144
     23145     23146     23145     23147     23146     23147     23148     23149
     23148     23150     23149     23150     23151     23152     23151     23153
     23152     23153     23154     23155     23154     23156     23155     23156
     23157     23158     23157     23159     23158     23159     23160     23161
     23160     23162     23161     23162     23163     23164     23163     23165
     23164     23165     23166     23167     23166     23168     23167     23168
     23169     23170     23169     23171     23170     23171     23172     23173
     23172     23174     23173     23174     23175     23176     23175     23177
     23176     23177     23178     23179     23178     23180     23179     23180
     23181     23182     23181     23183     23182     23183     23184     23185
     23184     23186     23185     23186     23187     23188     23187     23189
     23188     23189     23190     23191     23190     23192     23191     23192
     23193     23194     23193     23195     23194     23195     23196     23197
     23196     23198     23197     23198     23199     23200     23199     23201
     23200     23201     23202     23203     23202     23204     23203     23204
     23205     23206     23205     23207     23206     23207     23208     23209
     23208     23210     23209     23210     23211     23212     23211     23213
     23212     23213     23214     23215     23214     23216     23215     23216
     23217     23218     23217     23219     23218     23219     23220     23221
     23220     23222     23221     23222     23223     23224     23223     23225
     23224     23225     23226     23227     23226     23228     23227     23228
     23229     23230     23229     23231     23230     23231     23232     23233
     23232     23234     23233     23234     23235     23236     23235     23237
     23236     23237     23238     23239     23238     23240     23239     23240
     23241     23242     23241     23243     23242     23243     23244     23245
     23244     23246     23245     23246     23247     23248     23247     23249
     23248     23249     23250     23251     23250     23252     23251     23252
     23253     23254     23253     23255     23254     23255     23256     23257
     23256     23258     23257     23258     23259     23260     23259     23261
     23260     23261     23262     23263     23262     23264     23263     23264
     23265     23266     23265     23267     23266     23267     23268     23269
     23268     23270     23269     23270     23271     23272     23271     23273
     23272     23273     23274     23275     23274     23276     23275     23276
     23277     23278     23277     23279     23278     23279     23280     23281
     23280     23282     23281     23282     23283     23284     23283     23285
     23284     23285     23286     23287     23286     23288     23287     23288
     23289     23290     23289     23291     23290     23291     23292     23293
     23292     23294     23293     23294     23295     23296     23295     23297
     23296     23297     23298     23299     23298     23300     23299     23300
     23301     23302     23301     23303     23302     23303     23304     23305
     23304     23306     23305     23306     23307     23308     23307     23309
     23308     23309     23310     23311     23310     23312     23311     23312
     23313     23314     23313     23315     23314     23315     23316     23317
     23316     23318     23317     23318     23319     23320     23319     23321
     23320     23321     23322     23323     23322     23324     23323     23324
     23325     23326     23325     23327     23326     23327     23328     23329
     23328     23330     23329     23330     23331     23332     23331     23333
     23332     23333     23334     23335     23334     23336     23335     23336
     23337     23338     23337     23339     23338     23339     23340     23341
     23340     23342     23341     23342     23343     23344     23343     23345
     23344     23345     23346     23347     23346     23348     23347     23348
     23349     23350     23349     23351     23350     23351     23352     23353
     23352     23354     23353     23354     23355     23356     23355     23357
     23356     23357     23358     23359     23358     23360     23359     23360
     23361     23362     23361     23363     23362     23363     23364     23365
     23364     23366     23365     23366     23367     23368     23367     23369
     23368     23369     23370     23371     23370     23372     23371     23372
     23373     23374     23373     23375     23374     23375     23376     23377
     23376     23378     23377     23378     23379     23380     23379     23381
     23380     23381     23382     23383     23382     23384     23383     23384
     23385     23386     23385     23387     23386     23387     23388     23389
     23388     23390     23389     23390     23391     23392     23391     23393
     23392     23393     23394     23395     23394     23396     23395     23396
     23397     23398     23397     23399     23398     23399     23400     23401
     23400     23402     23401     23402     23403     23404     23403     23405
     23404     23405     23406     23407     23406     23408     23407     23408
     23409     23410     23409     23411     23410     23411     23412     23413
     23412     23414     23413     23414     23415     23416     23415     23417
     23416     23417     23418     23419     23418     23420     23419     23420
     23421     23422     23421     23423     23422     23423     23424     23425
     23424     23426     23425     23426     23427     23428     23427     23429
     23428     23429     23430     23431     23430     23432     23431     23432
     23433     23434     23433     23435     23434     23435     23436     23437
     23436     23438     23437     23438     23439     23440     23439     23441
     23440     23441     23442     23443     23442     23444     23443     23444
     23445     23446     23445     23447     23446     23447     23448     23449
     23448     23450     23449     23450     23451     23452     23451     23453
     23452     23453     23454     23455     23454     23456     23455     23456
     23457     23458     23457     23459     23458     23459     23460     23461
     23460     23462     23461     23462     23463     23464     23463     23465
     23464     23465     23466     23467     23466     23468     23467     23468
     23469     23470     23469     23471     23470     23471     23472     23473
     23472     23474     23473     23474     23475     23476     23475     23477
     23476     23477     23478     23479     23478     23480     23479     23480
     23481     23482     23481     23483     23482     23483     23484     23485
     23484     23486     23485     23486     23487     23488     23487     23489
     23488     23489     23490     23491     23490     23492     23491     23492
     23493     23494     23493     23495     23494     23495     23496     23497
     23496     23498     23497     23498     23499     23500     23499     23501
     23500     23501     23502     23503     23502     23504     23503     23504
     23505     23506     23505     23507     23506     23507     23508     23509
     23508     23510     23509     23510     23511     23512     23511     23513
     23512     23513     23514     23515     23514     23516     23515     23516
     23517     23518     23517     23519     23518     23519     23520     23521
     23520     23522     23521     23522     23523     23524     23523     23525
     23524     23525     23526     23527     23526     23528     23527     23528
     23529     23530     23529     23531     23530     23531     23532     23533
     23532     23534     23533     23534     23535     23536     23535     23537
     23536     23537     23538     23539     23538     23540     23539     23540
     23541     23542     23541     23543     23542     23543     23544     23545
     23544     23546     23545     23546     23547     23548     23547     23549
     23548     23549     23550     23551     23550     23552     23551     23552
     23553     23554     23553     23555     23554     23555     23556     23557
     23556     23558     23557     23558     23559     23560     23559     23561
     23560     23561     23562     23563     23562     23564     23563     23564
     23565     23566     23565     23567     23566     23567     23568     23569
     23568     23570     23569     23570     23571     23572     23571     23573
     23572     23573     23574     23575     23574     23576     23575     23576
     23577     23578     23577     23579     23578     23579     23580     23581
     23580     23582     23581     23582     23583     23584     23583     23585
     23584     23585     23586     23587     23586     23588     23587     23588
     23589     23590     23589     23591     23590     23591     23592     23593
     23592     23594     23593     23594     23595     23596     23595     23597
     23596     23597     23598     23599     23598     23600     23599     23600
     23601     23602     23601     23603     23602     23603     23604     23605
     23604     23606     23605     23606     23607     23608     23607     23609
     23608     23609     23610     23611     23610     23612     23611     23612
     23613     23614     23613     23615     23614     23615     23616     23617
     23616     23618     23617     23618     23619     23620     23619     23621
     23620     23621     23622     23623     23622     23624     23623     23624
     23625     23626     23625     23627     23626     23627     23628     23629
     23628     23630     23629     23630     23631     23632     23631     23633
     23632     23633     23634     23635     23634     23636     23635     23636
     23637     23638     23637     23639     23638     23639     23640     23641
     23640     23642     23641     23642     23643     23644     23643     23645
     23644     23645     23646     23647     23646     23648     23647     23648
     23649     23650     23649     23651     23650     23651     23652     23653
     23652     23654     23653     23654     23655     23656     23655     23657
     23656     23657     23658     23659     23658     23660     23659     23660
     23661     23662     23661     23663     23662     23663     23664     23665
     23664     23666     23665     23666     23667     23668     23667     23669
     23668     23669     23670     23671     23670     23672     23671     23672
     23673     23674     23673     23675     23674     23675     23676     23677
     23676     23678     23677     23678     23679     23680     23679     23681
     23680     23681     23682     23683     23682     23684     23683     23684
     23685     23686     23685     23687     23686     23687     23688     23689
     23688     23690     23689     23690     23691     23692     23691     23693
     23692     23693     23694     23695     23694     23696     23695     23696
     23697     23698     23697     23699     23698     23699     23700     23701
     23700     23702     23701     23702     23703     23704     23703     23705
     23704     23705     23706     23707     23706     23708     23707     23708
     23709     23710     23709     23711     23710     23711     23712     23713
     23712     23714     23713     23714     23715     23716     23715     23717
     23716     23717     23718     23719     23718     23720     23719     23720
     23721     23722     23721     23723     23722     23723     23724     23725
     23724     23726     23725     23726     23727     23728     23727     23729
     23728     23729     23730     23731     23730     23732     23731     23732
     23733     23734     23733     23735     23734     23735     23736     23737
     23736     23738     23737     23738     23739     23740     23739     23741
     23740     23741     23742     23743     23742     23744     23743     23744
     23745     23746     23745     23747     23746     23747     23748     23749
     23748     23750     23749     23750     23751     23752     23751     23753
     23752     23753     23754     23755     23754     23756     23755     23756
     23757     23758     23757     23759     23758     23759     23760     23761
     23760     23762     23761     23762     23763     23764     23763     23765
     23764     23765     23766     23767     23766     23768     23767     23768
     23769     23770     23769     23771     23770     23771     23772     23773
     23772     23774     23773     23774     23775     23776     23775     23777
     23776     23777     23778     23779     23778     23780     23779     23780
     23781     23782     23781     23783     23782     23783     23784     23785
     23784     23786     23785     23786     23787     23788     23787     23789
     23788     23789     23790     23791     23790     23792     23791     23792
     23793     23794     23793     23795     23794     23795     23796     23797
     23796     23798     23797     23798     23799     23800     23799     23801
     23800     23801     23802     23803     23802     23804     23803     23804
     23805     23806     23805     23807     23806     23807     23808     23809
     23808     23810     23809     23810     23811     23812     23811     23813
     23812     23813     23814     23815     23814     23816     23815     23816
     23817     23818     23817     23819     23818     23819     23820     23821
     23820     23822     23821     23822     23823     23824     23823     23825
     23824     23825     23826     23827     23826     23828     23827     23828
     23829     23830     23829     23831     23830     23831     23832     23833
     23832     23834     23833     23834     23835     23836     23835     23837
     23836     23837     23838     23839     23838     23840     23839     23840
     23841     23842     23841     23843     23842     23843     23844     23845
     23844     23846     23845     23846     23847     23848     23847     23849
     23848     23849     23850     23851     23850     23852     23851     23852
     23853     23854     23853     23855     23854     23855     23856     23857
     23856     23858     23857     23858     23859     23860     23859     23861
     23860     23861     23862     23863     23862     23864     23863     23864
     23865     23866     23865     23867     23866     23867     23868     23869
     23868     23870     23869     23870     23871     23872     23871     23873
     23872     23873     23874     23875     23874     23876     23875     23876
     23877     23878     23877     23879     23878     23879     23880     23881
     23880     23882     23881     23882     23883     23884     23883     23885
     23884     23885     23886     23887     23886     23888     23887     23888
     23889     23890     23889     23891     23890     23891     23892     23893
     23892     23894     23893     23894     23895     23896     23895     23897
     23896     23897     23898     23899     23898     23900     23899     23900
     23901     23902     23901     23903     23902     23903     23904     23905
     23904     23906     23905     23906     23907     23908     23907     23909
     23908     23909     23910     23911     23910     23912     23911     23912
     23913     23914     23913     23915     23914     23915     23916     23917
     23916     23918     23917     23918     23919     23920     23919     23921
     23920     23921     23922     23923     23922     23924     23923     23924
     23925     23926     23925     23927     23926     23927     23928     23929
     23928     23930     23929     23930     23931     23932     23931     23933
     23932     23933     23934     23935     23934     23936     23935     23936
     23937     23938     23937     23939     23938     23939     23940     23941
     23940     23942     23941     23942     23943     23944     23943     23945
     23944     23945     23946     23947     23946     23948     23947     23948
     23949     23950     23949     23951     23950     23951     23952     23953
     23952     23954     23953     23954     23955     23956     23955     23957
     23956     23957     23958     23959     23958     23960     23959     23960
     23961     23962     23961     23963     23962     23963     23964     23965
     23964     23966     23965     23966     23967     23968     23967     23969
     23968     23969     23970     23971     23970     23972     23971     23972
     23973     23974     23973     23975     23974     23975     23976     23977
     23976     23978     23977     23978     23979     23980     23979     23981
     23980     23981     23982     23983     23982     23984     23983     23984
     23985     23986     23985     23987     23986     23987     23988     23989
     23988     23990     23989     23990     23991     23992     23991     23993
     23992     23993     23994     23995     23994     23996     23995     23996
     23997     23998     23997     23999     23998     23999     24000     24001
     24000     24002     24001     24002     24003     24004     24003     24005
     24004     24005     24006     24007     24006     24008     24007     24008
     24009     24010     24009     24011     24010     24011     24012     24013
     24012     24014     24013     24014     24015     24016     24015     24017
     24016     24017     24018     24019     24018     24020     24019     24020
     24021     24022     24021     24023     24022     24023     24024     24025
     24024     24026     24025     24026     24027     24028     24027     24029
     24028     24029     24030     24031     24030     24032     24031     24032
     24033     24034     24033     24035     24034     24035     24036     24037
     24036     24038     24037     24038     24039     24040     24039     24041
     24040     24041     24042     24043     24042     24044     24043     24044
     24045     24046     24045     24047     24046     24047     24048     24049
     24048     24050     24049     24050     24051     24052     24051     24053
     24052     24053     24054     24055     24054     24056     24055     24056
     24057     24058     24057     24059     24058     24059     24060     24061
     24060     24062     24061     24062     24063     24064     24063     24065
     24064     24065     24066     24067     24066     24068     24067     24068
     24069     24070     24069     24071     24070     24071     24072     24073
     24072     24074     24073     24074     24075     24076     24075     24077
     24076     24077     24078     24079     24078     24080     24079     24080
     24081     24082     24081     24083     24082     24083     24084     24085
     24084     24086     24085     24086     24087     24088     24087     24089
     24088     24089     24090     24091     24090     24092     24091     24092
     24093     24094     24093     24095     24094     24095     24096     24097
     24096     24098     24097     24098     24099     24100     24099     24101
     24100     24101     24102     24103     24102     24104     24103     24104
     24105     24106     24105     24107     24106     24107     24108     24109
     24108     24110     24109     24110     24111     24112     24111     24113
     24112     24113     24114     24115     24114     24116     24115     24116
     24117     24118     24117     24119     24118     24119     24120     24121
     24120     24122     24121     24122     24123     24124     24123     24125
     24124     24125     24126     24127     24126     24128     24127     24128
     24129     24130     24129     24131     24130     24131     24132     24133
     24132     24134     24133     24134     24135     24136     24135     24137
     24136     24137     24138     24139     24138     24140     24139     24140
     24141     24142     24141     24143     24142     24143     24144     24145
     24144     24146     24145     24146     24147     24148     24147     24149
     24148     24149     24150     24151     24150     24152     24151     24152
     24153     24154     24153     24155     24154     24155     24156     24157
     24156     24158     24157     24158     24159     24160     24159     24161
     24160     24161     24162     24163     24162     24164     24163     24164
     24165     24166     24165     24167     24166     24167     24168     24169
     24168     24170     24169     24170     24171     24172     24171     24173
     24172     24173     24174     24175     24174     24176     24175     24176
     24177     24178     24177     24179     24178     24179     24180     24181
     24180     24182     24181     24182     24183     24184     24183     24185
     24184     24185     24186     24187     24186     24188     24187     24188
     24189     24190     24189     24191     24190     24191     24192     24193
     24192     24194     24193     24194     24195     24196     24195     24197
     24196     24197     24198     24199     24198     24200     24199     24200
     24201     24202     24201     24203     24202     24203     24204     24205
     24204     24206     24205     24206     24207     24208     24207     24209
     24208     24209     24210     24211     24210     24212     24211     24212
     24213     24214     24213     24215     24214     24215     24216     24217
     24216     24218     24217     24218     24219     24220     24219     24221
     24220     24221     24222     24223     24222     24224     24223     24224
     24225     24226     24225     24227     24226     24227     24228     24229
     24228     24230     24229     24230     24231     24232     24231     24233
     24232     24233     24234     24235     24234     24236     24235     24236
     24237     24238     24237     24239     24238     24239     24240     24241
     24240     24242     24241     24242     24243     24244     24243     24245
     24244     24245     24246     24247     24246     24248     24247     24248
     24249     24250     24249     24251     24250     24251     24252     24253
     24252     24254     24253     24254     24255     24256     24255     24257
     24256     24257     24258     24259     24258     24260     24259     24260
     24261     24262     24261     24263     24262     24263     24264     24265
     24264     24266     24265     24266     24267     24268     24267     24269
     24268     24269     24270     24271     24270     24272     24271     24272
     24273     24274     24273     24275     24274     24275     24276     24277
     24276     24278     24277     24278     24279     24280     24279     24281
     24280     24281     24282     24283     24282     24284     24283     24284
     24285     24286     24285     24287     24286     24287     24288     24289
     24288     24290     24289     24290     24291     24292     24291     24293
     24292     24293     24294     24295     24294     24296     24295     24296
     24297     24298     24297     24299     24298     24299     24300     24301
     24300     24302     24301     24302     24303     24304     24303     24305
     24304     24305     24306     24307     24306     24308     24307     24308
     24309     24310     24309     24311     24310     24311     24312     24313
     24312     24314     24313     24314     24315     24316     24315     24317
     24316     24317     24318     24319     24318     24320     24319     24320
     24321     24322     24321     24323     24322     24323     24324     24325
     24324     24326     24325     24326     24327     24328     24327     24329
     24328     24329     24330     24331     24330     24332     24331     24332
     24333     24334     24333     24335     24334     24335     24336     24337
     24336     24338     24337     24338     24339     24340     24339     24341
     24340     24341     24342     24343     24342     24344     24343     24344
     24345     24346     24345     24347     24346     24347     24348     24349
     24348     24350     24349     24350     24351     24352     24351     24353
     24352     24353     24354     24355     24354     24356     24355     24356
     24357     24358     24357     24359     24358     24359     24360     24361
     24360     24362     24361     24362     24363     24364     24363     24365
     24364     24365     24366     24367     24366     24368     24367     24368
     24369     24370     24369     24371     24370     24371     24372     24373
     24372     24374     24373     24374     24375     24376     24375     24377
     24376     24377     24378     24379     24378     24380     24379     24380
     24381     24382     24381     24383     24382     24383     24384     24385
     24384     24386     24385     24386     24387     24388     24387     24389
     24388     24389     24390     24391     24390     24392     24391     24392
     24393     24394     24393     24395     24394     24395     24396     24397
     24396     24398     24397     24398     24399     24400     24399     24401
     24400     24401     24402     24403     24402     24404     24403     24404
     24405     24406     24405     24407     24406     24407     24408     24409
     24408     24410     24409     24410     24411     24412     24411     24413
     24412     24413     24414     24415     24414     24416     24415     24416
     24417     24418     24417     24419     24418     24419     24420     24421
     24420     24422     24421     24422     24423     24424     24423     24425
     24424     24425     24426     24427     24426     24428     24427     24428
     24429     24430     24429     24431     24430     24431     24432     24433
     24432     24434     24433     24434     24435     24436     24435     24437
     24436     24437     24438     24439     24438     24440     24439     24440
     24441     24442     24441     24443     24442     24443     24444     24445
     24444     24446     24445     24446     24447     24448     24447     24449
     24448     24449     24450     24451     24450     24452     24451     24452
     24453     24454     24453     24455     24454     24455     24456     24457
     24456     24458     24457     24458     24459     24460     24459     24461
     24460     24461     24462     24463     24462     24464     24463     24464
     24465     24466     24465     24467     24466     24467     24468     24469
     24468     24470     24469     24470     24471     24472     24471     24473
     24472     24473     24474     24475     24474     24476     24475     24476
     24477     24478     24477     24479     24478     24479     24480     24481
     24480     24482     24481     24482     24483     24484     24483     24485
     24484     24485     24486     24487     24486     24488     24487     24488
     24489     24490     24489     24491     24490     24491     24492     24493
     24492     24494     24493     24494     24495     24496     24495     24497
     24496     24497     24498     24499     24498     24500     24499     24500
     24501     24502     24501     24503     24502     24503     24504     24505
     24504     24506     24505     24506     24507     24508     24507     24509
     24508     24509     24510     24511     24510     24512     24511     24512
     24513     24514     24513     24515     24514     24515     24516     24517
     24516     24518     24517     24518     24519     24520     24519     24521
     24520     24521     24522     24523     24522     24524     24523     24524
     24525     24526     24525     24527     24526     24527     24528     24529
     24528     24530     24529     24530     24531     24532     24531     24533
     24532     24533     24534     24535     24534     24536     24535     24536
     24537     24538     24537     24539     24538     24539     24540     24541
     24540     24542     24541     24542     24543     24544     24543     24545
     24544     24545     24546     24547     24546     24548     24547     24548
     24549     24550     24549     24551     24550     24551     24552     24553
     24552     24554     24553     24554     24555     24556     24555     24557
     24556     24557     24558     24559     24558     24560     24559     24560
     24561     24562     24561     24563     24562     24563     24564     24565
     24564     24566     24565     24566     24567     24568     24567     24569
     24568     24569     24570     24571     24570     24572     24571     24572
     24573     24574     24573     24575     24574     24575     24576     24577
     24576     24578     24577     24578     24579     24580     24579     24581
     24580     24581     24582     24583     24582     24584     24583     24584
     24585     24586     24585     24587     24586     24587     24588     24589
     24588     24590     24589     24590     24591     24592     24591     24593
     24592     24593     24594     24595     24594     24596     24595     24596
     24597     24598     24597     24599     24598     24599     24600     24601
     24600     24602     24601     24602     24603     24604     24603     24605
     24604     24605     24606     24607     24606     24608     24607     24608
     24609     24610     24609     24611     24610     24611     24612     24613
     24612     24614     24613     24614     24615     24616     24615     24617
     24616     24617     24618     24619     24618     24620     24619     24620
     24621     24622     24621     24623     24622     24623     24624     24625
     24624     24626     24625     24626     24627     24628     24627     24629
     24628     24629     24630     24631     24630     24632     24631     24632
     24633     24634     24633     24635     24634     24635     24636     24637
     24636     24638     24637     24638     24639     24640     24639     24641
     24640     24641     24642     24643     24642     24644     24643     24644
     24645     24646     24645     24647     24646     24647     24648     24649
     24648     24650     24649     24650     24651     24652     24651     24653
     24652     24653     24654     24655     24654     24656     24655     24656
     24657     24658     24657     24659     24658     24659     24660     24661
     24660     24662     24661     24662     24663     24664     24663     24665
     24664     24665     24666     24667     24666     24668     24667     24668
     24669     24670     24669     24671     24670     24671     24672     24673
     24672     24674     24673     24674     24675     24676     24675     24677
     24676     24677     24678     24679     24678     24680     24679     24680
     24681     24682     24681     24683     24682     24683     24684     24685
     24684     24686     24685     24686     24687     24688     24687     24689
     24688     24689     24690     24691     24690     24692     24691     24692
     24693     24694     24693     24695     24694     24695     24696     24697
     24696     24698     24697     24698     24699     24700     24699     24701
     24700     24701     24702     24703     24702     24704     24703     24704
     24705     24706     24705     24707     24706     24707     24708     24709
     24708     24710     24709     24710     24711     24712     24711     24713
     24712     24713     24714     24715     24714     24716     24715     24716
     24717     24718     24717     24719     24718     24719     24720     24721
     24720     24722     24721     24722     24723     24724     24723     24725
     24724     24725     24726     24727     24726     24728     24727     24728
     24729     24730     24729     24731     24730     24731     24732     24733
     24732     24734     24733     24734     24735     24736     24735     24737
     24736     24737     24738     24739     24738     24740     24739     24740
     24741     24742     24741     24743     24742     24743     24744     24745
     24744     24746     24745     24746     24747     24748     24747     24749
     24748     24749     24750     24751     24750     24752     24751     24752
     24753     24754     24753     24755     24754     24755     24756     24757
     24756     24758     24757     24758     24759     24760     24759     24761
     24760     24761     24762     24763     24762     24764     24763     24764
     24765     24766     24765     24767     24766     24767     24768     24769
     24768     24770     24769     24770     24771     24772     24771     24773
     24772     24773     24774     24775     24774     24776     24775     24776
     24777     24778     24777     24779     24778     24779     24780     24781
     24780     24782     24781     24782     24783     24784     24783     24785
     24784     24785     24786     24787     24786     24788     24787     24788
     24789     24790     24789     24791     24790     24791     24792     24793
     24792     24794     24793     24794     24795     24796     24795     24797
     24796     24797     24798     24799     24798     24800     24799     24800
     24801     24802     24801     24803     24802     24803     24804     24805
     24804     24806     24805     24806     24807     24808     24807     24809
     24808     24809     24810     24811     24810     24812     24811     24812
     24813     24814     24813     24815     24814     24815     24816     24817
     24816     24818     24817     24818     24819     24820     24819     24821
     24820     24821     24822     24823     24822     24824     24823     24824
     24825     24826     24825     24827     24826     24827     24828     24829
     24828     24830     24829     24830     24831     24832     24831     24833
     24832     24833     24834     24835     24834     24836     24835     24836
     24837     24838     24837     24839     24838     24839     24840     24841
     24840     24842     24841     24842     24843     24844     24843     24845
     24844     24845     24846     24847     24846     24848     24847     24848
     24849     24850     24849     24851     24850     24851     24852     24853
     24852     24854     24853     24854     24855     24856     24855     24857
     24856     24857     24858     24859     24858     24860     24859     24860
     24861     24862     24861     24863     24862     24863     24864     24865
     24864     24866     24865     24866     24867     24868     24867     24869
     24868     24869     24870     24871     24870     24872     24871     24872
     24873     24874     24873     24875     24874     24875     24876     24877
     24876     24878     24877     24878     24879     24880     24879     24881
     24880     24881     24882     24883     24882     24884     24883     24884
     24885     24886     24885     24887     24886     24887     24888     24889
     24888     24890     24889     24890     24891     24892     24891     24893
     24892     24893     24894     24895     24894     24896     24895     24896
     24897     24898     24897     24899     24898     24899     24900     24901
     24900     24902     24901     24902     24903     24904     24903     24905
     24904     24905     24906     24907     24906     24908     24907     24908
     24909     24910     24909     24911     24910     24911     24912     24913
     24912     24914     24913     24914     24915     24916     24915     24917
     24916     24917     24918     24919     24918     24920     24919     24920
     24921     24922     24921     24923     24922     24923     24924     24925
     24924     24926     24925     24926     24927     24928     24927     24929
     24928     24929     24930     24931     24930     24932     24931     24932
     24933     24934     24933     24935     24934     24935     24936     24937
     24936     24938     24937     24938     24939     24940     24939     24941
     24940     24941     24942     24943     24942     24944     24943     24944
     24945     24946     24945     24947     24946     24947     24948     24949
     24948     24950     24949     24950     24951     24952     24951     24953
     24952     24953     24954     24955     24954     24956     24955     24956
     24957     24958     24957     24959     24958     24959     24960     24961
     24960     24962     24961     24962     24963     24964     24963     24965
     24964     24965     24966     24967     24966     24968     24967     24968
     24969     24970     24969     24971     24970     24971     24972     24973
     24972     24974     24973     24974     24975     24976     24975     24977
     24976     24977     24978     24979     24978     24980     24979     24980
     24981     24982     24981     24983     24982     24983     24984     24985
     24984     24986     24985     24986     24987     24988     24987     24989
     24988     24989     24990     24991     24990     24992     24991     24992
     24993     24994     24993     24995     24994     24995     24996     24997
     24996     24998     24997     24998     24999     25000     24999     25001
     25000     25001     25002     25003     25002     25004     25003     25004
     25005     25006     25005     25007     25006     25007     25008     25009
     25008     25010     25009     25010     25011     25012     25011     25013
     25012     25013     25014     25015     25014     25016     25015     25016
     25017     25018     25017     25019     25018     25019     25020     25021
     25020     25022     25021     25022     25023     25024     25023     25025
     25024     25025     25026     25027     25026     25028     25027     25028
     25029     25030     25029     25031     25030     25031     25032     25033
     25032     25034     25033     25034     25035     25036     25035     25037
     25036     25037     25038     25039     25038     25040     25039     25040
     25041     25042     25041     25043     25042     25043     25044     25045
     25044     25046     25045     25046     25047     25048     25047     25049
     25048     25049     25050     25051     25050     25052     25051     25052
     25053     25054     25053     25055     25054     25055     25056     25057
     25056     25058     25057     25058     25059     25060     25059     25061
     25060     25061     25062     25063     25062     25064     25063     25064
     25065     25066     25065     25067     25066     25067     25068     25069
     25068     25070     25069     25070     25071     25072     25071     25073
     25072     25073     25074     25075     25074     25076     25075     25076
     25077     25078     25077     25079     25078     25079     25080     25081
     25080     25082     25081     25082     25083     25084     25083     25085
     25084     25085     25086     25087     25086     25088     25087     25088
     25089     25090     25089     25091     25090     25091     25092     25093
     25092     25094     25093     25094     25095     25096     25095     25097
     25096     25097     25098     25099     25098     25100     25099     25100
     25101     25102     25101     25103     25102     25103     25104     25105
     25104     25106     25105     25106     25107     25108     25107     25109
     25108     25109     25110     25111     25110     25112     25111     25112
     25113     25114     25113     25115     25114     25115     25116     25117
     25116     25118     25117     25118     25119     25120     25119     25121
     25120     25121     25122     25123     25122     25124     25123     25124
     25125     25126     25125     25127     25126     25127     25128     25129
     25128     25130     25129     25130     25131     25132     25131     25133
     25132     25133     25134     25135     25134     25136     25135     25136
     25137     25138     25137     25139     25138     25139     25140     25141
     25140     25142     25141     25142     25143     25144     25143     25145
     25144     25145     25146     25147     25146     25148     25147     25148
     25149     25150     25149     25151     25150     25151     25152     25153
     25152     25154     25153     25154     25155     25156     25155     25157
     25156     25157     25158     25159     25158     25160     25159     25160
     25161     25162     25161     25163     25162     25163     25164     25165
     25164     25166     25165     25166     25167     25168     25167     25169
     25168     25169     25170     25171     25170     25172     25171     25172
     25173     25174     25173     25175     25174     25175     25176     25177
     25176     25178     25177     25178     25179     25180     25179     25181
     25180     25181     25182     25183     25182     25184     25183     25184
     25185     25186     25185     25187     25186     25187     25188     25189
     25188     25190     25189     25190     25191     25192     25191     25193
     25192     25193     25194     25195     25194     25196     25195     25196
     25197     25198     25197     25199     25198     25199     25200     25201
     25200     25202     25201     25202     25203     25204     25203     25205
     25204     25205     25206     25207     25206     25208     25207     25208
     25209     25210     25209     25211     25210     25211     25212     25213
     25212     25214     25213     25214     25215     25216     25215     25217
     25216     25217     25218     25219     25218     25220     25219     25220
     25221     25222     25221     25223     25222     25223     25224     25225
     25224     25226     25225     25226     25227     25228     25227     25229
     25228     25229     25230     25231     25230     25232     25231     25232
     25233     25234     25233     25235     25234     25235     25236     25237
     25236     25238     25237     25238     25239     25240     25239     25241
     25240     25241     25242     25243     25242     25244     25243     25244
     25245     25246     25245     25247     25246     25247     25248     25249
     25248     25250     25249     25250     25251     25252     25251     25253
     25252     25253     25254     25255     25254     25256     25255     25256
     25257     25258     25257     25259     25258     25259     25260     25261
     25260     25262     25261     25262     25263     25264     25263     25265
     25264     25265     25266     25267     25266     25268     25267     25268
     25269     25270     25269     25271     25270     25271     25272     25273
     25272     25274     25273     25274     25275     25276     25275     25277
     25276     25277     25278     25279     25278     25280     25279     25280
     25281     25282     25281     25283     25282     25283     25284     25285
     25284     25286     25285     25286     25287     25288     25287     25289
     25288     25289     25290     25291     25290     25292     25291     25292
     25293     25294     25293     25295     25294     25295     25296     25297
     25296     25298     25297     25298     25299     25300     25299     25301
     25300     25301     25302     25303     25302     25304     25303     25304
     25305     25306     25305     25307     25306     25307     25308     25309
     25308     25310     25309     25310     25311     25312     25311     25313
     25312     25313     25314     25315     25314     25316     25315     25316
     25317     25318     25317     25319     25318     25319     25320     25321
     25320     25322     25321     25322     25323     25324     25323     25325
     25324     25325     25326     25327     25326     25328     25327     25328
     25329     25330     25329     25331     25330     25331     25332     25333
     25332     25334     25333     25334     25335     25336     25335     25337
     25336     25337     25338     25339     25338     25340     25339     25340
     25341     25342     25341     25343     25342     25343     25344     25345
     25344     25346     25345     25346     25347     25348     25347     25349
     25348     25349     25350     25351     25350     25352     25351     25352
     25353     25354     25353     25355     25354     25355     25356     25357
     25356     25358     25357     25358     25359     25360     25359     25361
     25360     25361     25362     25363     25362     25364     25363     25364
     25365     25366     25365     25367     25366     25367     25368     25369
     25368     25370     25369     25370     25371     25372     25371     25373
     25372     25373     25374     25375     25374     25376     25375     25376
     25377     25378     25377     25379     25378     25379     25380     25381
     25380     25382     25381     25382     25383     25384     25383     25385
     25384     25385     25386     25387     25386     25388     25387     25388
     25389     25390     25389     25391     25390     25391     25392     25393
     25392     25394     25393     25394     25395     25396     25395     25397
     25396     25397     25398     25399     25398     25400     25399     25400
     25401     25402     25401     25403     25402     25403     25404     25405
     25404     25406     25405     25406     25407     25408     25407     25409
     25408     25409     25410     25411     25410     25412     25411     25412
     25413     25414     25413     25415     25414     25415     25416     25417
     25416     25418     25417     25418     25419     25420     25419     25421
     25420     25421     25422     25423     25422     25424     25423     25424
     25425     25426     25425     25427     25426     25427     25428     25429
     25428     25430     25429     25430     25431     25432     25431     25433
     25432     25433     25434     25435     25434     25436     25435     25436
     25437     25438     25437     25439     25438     25439     25440     25441
     25440     25442     25441     25442     25443     25444     25443     25445
     25444     25445     25446     25447     25446     25448     25447     25448
     25449     25450     25449     25451     25450     25451     25452     25453
     25452     25454     25453     25454     25455     25456     25455     25457
     25456     25457     25458     25459     25458     25460     25459     25460
     25461     25462     25461     25463     25462     25463     25464     25465
     25464     25466     25465     25466     25467     25468     25467     25469
     25468     25469     25470     25471     25470     25472     25471     25472
     25473     25474     25473     25475     25474     25475     25476     25477
     25476     25478     25477     25478     25479     25480     25479     25481
     25480     25481     25482     25483     25482     25484     25483     25484
     25485     25486     25485     25487     25486     25487     25488     25489
     25488     25490     25489     25490     25491     25492     25491     25493
     25492     25493     25494     25495     25494     25496     25495     25496
     25497     25498     25497     25499     25498     25499     25500     25501
     25500     25502     25501     25502     25503     25504     25503     25505
     25504     25505     25506     25507     25506     25508     25507     25508
     25509     25510     25509     25511     25510     25511     25512     25513
     25512     25514     25513     25514     25515     25516     25515     25517
     25516     25517     25518     25519     25518     25520     25519     25520
     25521     25522     25521     25523     25522     25523     25524     25525
     25524     25526     25525     25526     25527     25528     25527     25529
     25528     25529     25530     25531     25530     25532     25531     25532
     25533     25534     25533     25535     25534     25535     25536     25537
     25536     25538     25537     25538     25539     25540     25539     25541
     25540     25541     25542     25543     25542     25544     25543     25544
     25545     25546     25545     25547     25546     25547     25548     25549
     25548     25550     25549     25550     25551     25552     25551     25553
     25552     25553     25554     25555     25554     25556     25555     25556
     25557     25558     25557     25559     25558     25559     25560     25561
     25560     25562     25561     25562     25563     25564     25563     25565
     25564     25565     25566     25567     25566     25568     25567     25568
     25569     25570     25569     25571     25570     25571     25572     25573
     25572     25574     25573     25574     25575     25576     25575     25577
     25576     25577     25578     25579     25578     25580     25579     25580
     25581     25582     25581     25583     25582     25583     25584     25585
     25584     25586     25585     25586     25587     25588     25587     25589
     25588     25589     25590     25591     25590     25592     25591     25592
     25593     25594     25593     25595     25594     25595     25596     25597
     25596     25598     25597     25598     25599     25600     25599     25601
     25600     25601     25602     25603     25602     25604     25603     25604
     25605     25606     25605     25607     25606     25607     25608     25609
     25608     25610     25609     25610     25611     25612     25611     25613
     25612     25613     25614     25615     25614     25616     25615     25616
     25617     25618     25617     25619     25618     25619     25620     25621
     25620     25622     25621     25622     25623     25624     25623     25625
     25624     25625     25626     25627     25626     25628     25627     25628
     25629     25630     25629     25631     25630     25631     25632     25633
     25632     25634     25633     25634     25635     25636     25635     25637
     25636     25637     25638     25639     25638     25640     25639     25640
     25641     25642     25641     25643     25642     25643     25644     25645
     25644     25646     25645     25646     25647     25648     25647     25649
     25648     25649     25650     25651     25650     25652     25651     25652
     25653     25654     25653     25655     25654     25655     25656     25657
     25656     25658     25657     25658     25659     25660     25659     25661
     25660     25661     25662     25663     25662     25664     25663     25664
     25665     25666     25665     25667     25666     25667     25668     25669
     25668     25670     25669     25670     25671     25672     25671     25673
     25672     25673     25674     25675     25674     25676     25675     25676
     25677     25678     25677     25679     25678     25679     25680     25681
     25680     25682     25681     25682     25683     25684     25683     25685
     25684     25685     25686     25687     25686     25688     25687     25688
     25689     25690     25689     25691     25690     25691     25692     25693
     25692     25694     25693     25694     25695     25696     25695     25697
     25696     25697     25698     25699     25698     25700     25699     25700
     25701     25702     25701     25703     25702     25703     25704     25705
     25704     25706     25705     25706     25707     25708     25707     25709
     25708     25709     25710     25711     25710     25712     25711     25712
     25713     25714     25713     25715     25714     25715     25716     25717
     25716     25718     25717     25718     25719     25720     25719     25721
     25720     25721     25722     25723     25722     25724     25723     25724
     25725     25726     25725     25727     25726     25727     25728     25729
     25728     25730     25729     25730     25731     25732     25731     25733
     25732     25733     25734     25735     25734     25736     25735     25736
     25737     25738     25737     25739     25738     25739     25740     25741
     25740     25742     25741     25742     25743     25744     25743     25745
     25744     25745     25746     25747     25746     25748     25747     25748
     25749     25750     25749     25751     25750     25751     25752     25753
     25752     25754     25753     25754     25755     25756     25755     25757
     25756     25757     25758     25759     25758     25760     25759     25760
     25761     25762     25761     25763     25762     25763     25764     25765
     25764     25766     25765     25766     25767     25768     25767     25769
     25768     25769     25770     25771     25770     25772     25771     25772
     25773     25774     25773     25775     25774     25775     25776     25777
     25776     25778     25777     25778     25779     25780     25779     25781
     25780     25781     25782     25783     25782     25784     25783     25784
     25785     25786     25785     25787     25786     25787     25788     25789
     25788     25790     25789     25790     25791     25792     25791     25793
     25792     25793     25794     25795     25794     25796     25795     25796
     25797     25798     25797     25799     25798     25799     25800     25801
     25800     25802     25801     25802     25803     25804     25803     25805
     25804     25805     25806     25807     25806     25808     25807     25808
     25809     25810     25809     25811     25810     25811     25812     25813
     25812     25814     25813     25814     25815     25816     25815     25817
     25816     25817     25818     25819     25818     25820     25819     25820
     25821     25822     25821     25823     25822     25823     25824     25825
     25824     25826     25825     25826     25827     25828     25827     25829
     25828     25829     25830     25831     25830     25832     25831     25832
     25833     25834     25833     25835     25834     25835     25836     25837
     25836     25838     25837     25838     25839     25840     25839     25841
     25840     25841     25842     25843     25842     25844     25843     25844
     25845     25846     25845     25847     25846     25847     25848     25849
     25848     25850     25849     25850     25851     25852     25851     25853
     25852     25853     25854     25855     25854     25856     25855     25856
     25857     25858     25857     25859     25858     25859     25860     25861
     25860     25862     25861     25862     25863     25864     25863     25865
     25864     25865     25866     25867     25866     25868     25867     25868
     25869     25870     25869     25871     25870     25871     25872     25873
     25872     25874     25873     25874     25875     25876     25875     25877
     25876     25877     25878     25879     25878     25880     25879     25880
     25881     25882     25881     25883     25882     25883     25884     25885
     25884     25886     25885     25886     25887     25888     25887     25889
     25888     25889     25890     25891     25890     25892     25891     25892
     25893     25894     25893     25895     25894     25895     25896     25897
     25896     25898     25897     25898     25899     25900     25899     25901
     25900     25901     25902     25903     25902     25904     25903     25904
     25905     25906     25905     25907     25906     25907     25908     25909
     25908     25910     25909     25910     25911     25912     25911     25913
     25912     25913     25914     25915     25914     25916     25915     25916
     25917     25918     25917     25919     25918     25919     25920     25921
     25920     25922     25921     25922     25923     25924     25923     25925
     25924     25925     25926     25927     25926     25928     25927     25928
     25929     25930     25929     25931     25930     25931     25932     25933
     25932     25934     25933     25934     25935     25936     25935     25937
     25936     25937     25938     25939     25938     25940     25939     25940
     25941     25942     25941     25943     25942     25943     25944     25945
     25944     25946     25945     25946     25947     25948     25947     25949
     25948     25949     25950     25951     25950     25952     25951     25952
     25953     25954     25953     25955     25954     25955     25956     25957
     25956     25958     25957     25958     25959     25960     25959     25961
     25960     25961     25962     25963     25962     25964     25963     25964
     25965     25966     25965     25967     25966     25967     25968     25969
     25968     25970     25969     25970     25971     25972     25971     25973
     25972     25973     25974     25975     25974     25976     25975     25976
     25977     25978     25977     25979     25978     25979     25980     25981
     25980     25982     25981     25982     25983     25984     25983     25985
     25984     25985     25986     25987     25986     25988     25987     25988
     25989     25990     25989     25991     25990     25991     25992     25993
     25992     25994     25993     25994     25995     25996     25995     25997
     25996     25997     25998     25999     25998     26000     25999     26000
     26001     26002     26001     26003     26002     26003     26004     26005
     26004     26006     26005     26006     26007     26008     26007     26009
     26008     26009     26010     26011     26010     26012     26011     26012
     26013     26014     26013     26015     26014     26015     26016     26017
     26016     26018     26017     26018     26019     26020     26019     26021
     26020     26021     26022     26023     26022     26024     26023     26024
     26025     26026     26025     26027     26026     26027     26028     26029
     26028     26030     26029     26030     26031     26032     26031     26033
     26032     26033     26034     26035     26034     26036     26035     26036
     26037     26038     26037     26039     26038     26039     26040     26041
     26040     26042     26041     26042     26043     26044     26043     26045
     26044     26045     26046     26047     26046     26048     26047     26048
     26049     26050     26049     26051     26050     26051     26052     26053
     26052     26054     26053     26054     26055     26056     26055     26057
     26056     26057     26058     26059     26058     26060     26059     26060
     26061     26062     26061     26063     26062     26063     26064     26065
     26064     26066     26065     26066     26067     26068     26067     26069
     26068     26069     26070     26071     26070     26072     26071     26072
     26073     26074     26073     26075     26074     26075     26076     26077
     26076     26078     26077     26078     26079     26080     26079     26081
     26080     26081     26082     26083     26082     26084     26083     26084
     26085     26086     26085     26087     26086     26087     26088     26089
     26088     26090     26089     26090     26091     26092     26091     26093
     26092     26093     26094     26095     26094     26096     26095     26096
     26097     26098     26097     26099     26098     26099     26100     26101
     26100     26102     26101     26102     26103     26104     26103     26105
     26104     26105     26106     26107     26106     26108     26107     26108
     26109     26110     26109     26111     26110     26111     26112     26113
     26112     26114     26113     26114     26115     26116     26115     26117
     26116     26117     26118     26119     26118     26120     26119     26120
     26121     26122     26121     26123     26122     26123     26124     26125
     26124     26126     26125     26126     26127     26128     26127     26129
     26128     26129     26130     26131     26130     26132     26131     26132
     26133     26134     26133     26135     26134     26135     26136     26137
     26136     26138     26137     26138     26139     26140     26139     26141
     26140     26141     26142     26143     26142     26144     26143     26144
     26145     26146     26145     26147     26146     26147     26148     26149
     26148     26150     26149     26150     26151     26152     26151     26153
     26152     26153     26154     26155     26154     26156     26155     26156
     26157     26158     26157     26159     26158     26159     26160     26161
     26160     26162     26161     26162     26163     26164     26163     26165
     26164     26165     26166     26167     26166     26168     26167     26168
     26169     26170     26169     26171     26170     26171     26172     26173
     26172     26174     26173     26174     26175     26176     26175     26177
     26176     26177     26178     26179     26178     26180     26179     26180
     26181     26182     26181     26183     26182     26183     26184     26185
     26184     26186     26185     26186     26187     26188     26187     26189
     26188     26189     26190     26191     26190     26192     26191     26192
     26193     26194     26193     26195     26194     26195     26196     26197
     26196     26198     26197     26198     26199     26200     26199     26201
     26200     26201     26202     26203     26202     26204     26203     26204
     26205     26206     26205     26207     26206     26207     26208     26209
     26208     26210     26209     26210     26211     26212     26211     26213
     26212     26213     26214     26215     26214     26216     26215     26216
     26217     26218     26217     26219     26218     26219     26220     26221
     26220     26222     26221     26222     26223     26224     26223     26225
     26224     26225     26226     26227     26226     26228     26227     26228
     26229     26230     26229     26231     26230     26231     26232     26233
     26232     26234     26233     26234     26235     26236     26235     26237
     26236     26237     26238     26239     26238     26240     26239     26240
     26241     26242     26241     26243     26242     26243     26244     26245
     26244     26246     26245     26246     26247     26248     26247     26249
     26248     26249     26250     26251     26250     26252     26251     26252
     26253     26254     26253     26255     26254     26255     26256     26257
     26256     26258     26257     26258     26259     26260     26259     26261
     26260     26261     26262     26263     26262     26264     26263     26264
     26265     26266     26265     26267     26266     26267     26268     26269
     26268     26270     26269     26270     26271     26272     26271     26273
     26272     26273     26274     26275     26274     26276     26275     26276
     26277     26278     26277     26279     26278     26279     26280     26281
     26280     26282     26281     26282     26283     26284     26283     26285
     26284     26285     26286     26287     26286     26288     26287     26288
     26289     26290     26289     26291     26290     26291     26292     26293
     26292     26294     26293     26294     26295     26296     26295     26297
     26296     26297     26298     26299     26298     26300     26299     26300
     26301     26302     26301     26303     26302     26303     26304     26305
     26304     26306     26305     26306     26307     26308     26307     26309
     26308     26309     26310     26311     26310     26312     26311     26312
     26313     26314     26313     26315     26314     26315     26316     26317
     26316     26318     26317     26318     26319     26320     26319     26321
     26320     26321     26322     26323     26322     26324     26323     26324
     26325     26326     26325     26327     26326     26327     26328     26329
     26328     26330     26329     26330     26331     26332     26331     26333
     26332     26333     26334     26335     26334     26336     26335     26336
     26337     26338     26337     26339     26338     26339     26340     26341
     26340     26342     26341     26342     26343     26344     26343     26345
     26344     26345     26346     26347     26346     26348     26347     26348
     26349     26350     26349     26351     26350     26351     26352     26353
     26352     26354     26353     26354     26355     26356     26355     26357
     26356     26357     26358     26359     26358     26360     26359     26360
     26361     26362     26361     26363     26362     26363     26364     26365
     26364     26366     26365     26366     26367     26368     26367     26369
     26368     26369     26370     26371     26370     26372     26371     26372
     26373     26374     26373     26375     26374     26375     26376     26377
     26376     26378     26377     26378     26379     26380     26379     26381
     26380     26381     26382     26383     26382     26384     26383     26384
     26385     26386     26385     26387     26386     26387     26388     26389
     26388     26390     26389     26390     26391     26392     26391     26393
     26392     26393     26394     26395     26394     26396     26395     26396
     26397     26398     26397     26399     26398     26399     26400     26401
     26400     26402     26401     26402     26403     26404     26403     26405
     26404     26405     26406     26407     26406     26408     26407     26408
     26409     26410     26409     26411     26410     26411     26412     26413
     26412     26414     26413     26414     26415     26416     26415     26417
     26416     26417     26418     26419     26418     26420     26419     26420
     26421     26422     26421     26423     26422     26423     26424     26425
     26424     26426     26425     26426     26427     26428     26427     26429
     26428     26429     26430     26431     26430     26432     26431     26432
     26433     26434     26433     26435     26434     26435     26436     26437
     26436     26438     26437     26438     26439     26440     26439     26441
     26440     26441     26442     26443     26442     26444     26443     26444
     26445     26446     26445     26447     26446     26447     26448     26449
     26448     26450     26449     26450     26451     26452     26451     26453
     26452     26453     26454     26455     26454     26456     26455     26456
     26457     26458     26457     26459     26458     26459     26460     26461
     26460     26462     26461     26462     26463     26464     26463     26465
     26464     26465     26466     26467     26466     26468     26467     26468
     26469     26470     26469     26471     26470     26471     26472     26473
     26472     26474     26473     26474     26475     26476     26475     26477
     26476     26477     26478     26479     26478     26480     26479     26480
     26481     26482     26481     26483     26482     26483     26484     26485
     26484     26486     26485     26486     26487     26488     26487     26489
     26488     26489     26490     26491     26490     26492     26491     26492
     26493     26494     26493     26495     26494     26495     26496     26497
     26496     26498     26497     26498     26499     26500     26499     26501
     26500     26501     26502     26503     26502     26504     26503     26504
     26505     26506     26505     26507     26506     26507     26508     26509
     26508     26510     26509     26510     26511     26512     26511     26513
     26512     26513     26514     26515     26514     26516     26515     26516
     26517     26518     26517     26519     26518     26519     26520     26521
     26520     26522     26521     26522     26523     26524     26523     26525
     26524     26525     26526     26527     26526     26528     26527     26528
     26529     26530     26529     26531     26530     26531     26532     26533
     26532     26534     26533     26534     26535     26536     26535     26537
     26536     26537     26538     26539     26538     26540     26539     26540
     26541     26542     26541     26543     26542     26543     26544     26545
     26544     26546     26545     26546     26547     26548     26547     26549
     26548     26549     26550     26551     26550     26552     26551     26552
     26553     26554     26553     26555     26554     26555     26556     26557
     26556     26558     26557     26558     26559     26560     26559     26561
     26560     26561     26562     26563     26562     26564     26563     26564
     26565     26566     26565     26567     26566     26567     26568     26569
     26568     26570     26569     26570     26571     26572     26571     26573
     26572     26573     26574     26575     26574     26576     26575     26576
     26577     26578     26577     26579     26578     26579     26580     26581
     26580     26582     26581     26582     26583     26584     26583     26585
     26584     26585     26586     26587     26586     26588     26587     26588
     26589     26590     26589     26591     26590     26591     26592     26593
     26592     26594     26593     26594     26595     26596     26595     26597
     26596     26597     26598     26599     26598     26600     26599     26600
     26601     26602     26601     26603     26602     26603     26604     26605
     26604     26606     26605     26606     26607     26608     26607     26609
     26608     26609     26610     26611     26610     26612     26611     26612
     26613     26614     26613     26615     26614     26615     26616     26617
     26616     26618     26617     26618     26619     26620     26619     26621
     26620     26621     26622     26623     26622     26624     26623     26624
     26625     26626     26625     26627     26626     26627     26628     26629
     26628     26630     26629     26630     26631     26632     26631     26633
     26632     26633     26634     26635     26634     26636     26635     26636
     26637     26638     26637     26639     26638     26639     26640     26641
     26640     26642     26641     26642     26643     26644     26643     26645
     26644     26645     26646     26647     26646     26648     26647     26648
     26649     26650     26649     26651     26650     26651     26652     26653
     26652     26654     26653     26654     26655     26656     26655     26657
     26656     26657     26658     26659     26658     26660     26659     26660
     26661     26662     26661     26663     26662     26663     26664     26665
     26664     26666     26665     26666     26667     26668     26667     26669
     26668     26669     26670     26671     26670     26672     26671     26672
     26673     26674     26673     26675     26674     26675     26676     26677
     26676     26678     26677     26678     26679     26680     26679     26681
     26680     26681     26682     26683     26682     26684     26683     26684
     26685     26686     26685     26687     26686     26687     26688     26689
     26688     26690     26689     26690     26691     26692     26691     26693
     26692     26693     26694     26695     26694     26696     26695     26696
     26697     26698     26697     26699     26698     26699     26700     26701
     26700     26702     26701     26702     26703     26704     26703     26705
     26704     26705     26706     26707     26706     26708     26707     26708
     26709     26710     26709     26711     26710     26711     26712     26713
     26712     26714     26713     26714     26715     26716     26715     26717
     26716     26717     26718     26719     26718     26720     26719     26720
     26721     26722     26721     26723     26722     26723     26724     26725
     26724     26726     26725     26726     26727     26728     26727     26729
     26728     26729     26730     26731     26730     26732     26731     26732
     26733     26734     26733     26735     26734     26735     26736     26737
     26736     26738     26737     26738     26739     26740     26739     26741
     26740     26741     26742     26743     26742     26744     26743     26744
     26745     26746     26745     26747     26746     26747     26748     26749
     26748     26750     26749     26750     26751     26752     26751     26753
     26752     26753     26754     26755     26754     26756     26755     26756
     26757     26758     26757     26759     26758     26759     26760     26761
     26760     26762     26761     26762     26763     26764     26763     26765
     26764     26765     26766     26767     26766     26768     26767     26768
     26769     26770     26769     26771     26770     26771     26772     26773
     26772     26774     26773     26774     26775     26776     26775     26777
     26776     26777     26778     26779     26778     26780     26779     26780
     26781     26782     26781     26783     26782     26783     26784     26785
     26784     26786     26785     26786     26787     26788     26787     26789
     26788     26789     26790     26791     26790     26792     26791     26792
     26793     26794     26793     26795     26794     26795     26796     26797
     26796     26798     26797     26798     26799     26800     26799     26801
     26800     26801     26802     26803     26802     26804     26803     26804
     26805     26806     26805     26807     26806     26807     26808     26809
     26808     26810     26809     26810     26811     26812     26811     26813
     26812     26813     26814     26815     26814     26816     26815     26816
     26817     26818     26817     26819     26818     26819     26820     26821
     26820     26822     26821     26822     26823     26824     26823     26825
     26824     26825     26826     26827     26826     26828     26827     26828
     26829     26830     26829     26831     26830     26831     26832     26833
     26832     26834     26833     26834     26835     26836     26835     26837
     26836     26837     26838     26839     26838     26840     26839     26840
     26841     26842     26841     26843     26842     26843     26844     26845
     26844     26846     26845     26846     26847     26848     26847     26849
     26848     26849     26850     26851     26850     26852     26851     26852
     26853     26854     26853     26855     26854     26855     26856     26857
     26856     26858     26857     26858     26859     26860     26859     26861
     26860     26861     26862     26863     26862     26864     26863     26864
     26865     26866     26865     26867     26866     26867     26868     26869
     26868     26870     26869     26870     26871     26872     26871     26873
     26872     26873     26874     26875     26874     26876     26875     26876
     26877     26878     26877     26879     26878     26879     26880     26881
     26880     26882     26881     26882     26883     26884     26883     26885
     26884     26885     26886     26887     26886     26888     26887     26888
     26889     26890     26889     26891     26890     26891     26892     26893
     26892     26894     26893     26894     26895     26896     26895     26897
     26896     26897     26898     26899     26898     26900     26899     26900
     26901     26902     26901     26903     26902     26903     26904     26905
     26904     26906     26905     26906     26907     26908     26907     26909
     26908     26909     26910     26911     26910     26912     26911     26912
     26913     26914     26913     26915     26914     26915     26916     26917
     26916     26918     26917     26918     26919     26920     26919     26921
     26920     26921     26922     26923     26922     26924     26923     26924
     26925     26926     26925     26927     26926     26927     26928     26929
     26928     26930     26929     26930     26931     26932     26931     26933
     26932     26933     26934     26935     26934     26936     26935     26936
     26937     26938     26937     26939     26938     26939     26940     26941
     26940     26942     26941     26942     26943     26944     26943     26945
     26944     26945     26946     26947     26946     26948     26947     26948
     26949     26950     26949     26951     26950     26951     26952     26953
     26952     26954     26953     26954     26955     26956     26955     26957
     26956     26957     26958     26959     26958     26960     26959     26960
     26961     26962     26961     26963     26962     26963     26964     26965
     26964     26966     26965     26966     26967     26968     26967     26969
     26968     26969     26970     26971     26970     26972     26971     26972
     26973     26974     26973     26975     26974     26975     26976     26977
     26976     26978     26977     26978     26979     26980     26979     26981
     26980     26981     26982     26983     26982     26984     26983     26984
     26985     26986     26985     26987     26986     26987     26988     26989
     26988     26990     26989     26990     26991     26992     26991     26993
     26992     26993     26994     26995     26994     26996     26995     26996
     26997     26998     26997     26999     26998     26999     27000     27001
     27000     27002     27001     27002     27003     27004     27003     27005
     27004     27005     27006     27007     27006     27008     27007     27008
     27009     27010     27009     27011     27010     27011     27012     27013
     27012     27014     27013     27014     27015     27016     27015     27017
     27016     27017     27018     27019     27018     27020     27019     27020
     27021     27022     27021     27023     27022     27023     27024     27025
     27024     27026     27025     27026     27027     27028     27027     27029
     27028     27029     27030     27031     27030     27032     27031     27032
     27033     27034     27033     27035     27034     27035     27036     27037
     27036     27038     27037     27038     27039     27040     27039     27041
     27040     27041     27042     27043     27042     27044     27043     27044
     27045     27046     27045     27047     27046     27047     27048     27049
     27048     27050     27049     27050     27051     27052     27051     27053
     27052     27053     27054     27055     27054     27056     27055     27056
     27057     27058     27057     27059     27058     27059     27060     27061
     27060     27062     27061     27062     27063     27064     27063     27065
     27064     27065     27066     27067     27066     27068     27067     27068
     27069     27070     27069     27071     27070     27071     27072     27073
     27072     27074     27073     27074     27075     27076     27075     27077
     27076     27077     27078     27079     27078     27080     27079     27080
     27081     27082     27081     27083     27082     27083     27084     27085
     27084     27086     27085     27086     27087     27088     27087     27089
     27088     27089     27090     27091     27090     27092     27091     27092
     27093     27094     27093     27095     27094     27095     27096     27097
     27096     27098     27097     27098     27099     27100     27099     27101
     27100     27101     27102     27103     27102     27104     27103     27104
     27105     27106     27105     27107     27106     27107     27108     27109
     27108     27110     27109     27110     27111     27112     27111     27113
     27112     27113     27114     27115     27114     27116     27115     27116
     27117     27118     27117     27119     27118     27119     27120     27121
     27120     27122     27121     27122     27123     27124     27123     27125
     27124     27125     27126     27127     27126     27128     27127     27128
     27129     27130     27129     27131     27130     27131     27132     27133
     27132     27134     27133     27134     27135     27136     27135     27137
     27136     27137     27138     27139     27138     27140     27139     27140
     27141     27142     27141     27143     27142     27143     27144     27145
     27144     27146     27145     27146     27147     27148     27147     27149
     27148     27149     27150     27151     27150     27152     27151     27152
     27153     27154     27153     27155     27154     27155     27156     27157
     27156     27158     27157     27158     27159     27160     27159     27161
     27160     27161     27162     27163     27162     27164     27163     27164
     27165     27166     27165     27167     27166     27167     27168     27169
     27168     27170     27169     27170     27171     27172     27171     27173
     27172     27173     27174     27175     27174     27176     27175     27176
     27177     27178     27177     27179     27178     27179     27180     27181
     27180     27182     27181     27182     27183     27184     27183     27185
     27184     27185     27186     27187     27186     27188     27187     27188
     27189     27190     27189     27191     27190     27191     27192     27193
     27192     27194     27193     27194     27195     27196     27195     27197
     27196     27197     27198     27199     27198     27200     27199     27200
     27201     27202     27201     27203     27202     27203     27204     27205
     27204     27206     27205     27206     27207     27208     27207     27209
     27208     27209     27210     27211     27210     27212     27211     27212
     27213     27214     27213     27215     27214     27215     27216     27217
     27216     27218     27217     27218     27219     27220     27219     27221
     27220     27221     27222     27223     27222     27224     27223     27224
     27225     27226     27225     27227     27226     27227     27228     27229
     27228     27230     27229     27230     27231     27232     27231     27233
     27232     27233     27234     27235     27234     27236     27235     27236
     27237     27238     27237     27239     27238     27239     27240     27241
     27240     27242     27241     27242     27243     27244     27243     27245
     27244     27245     27246     27247     27246     27248     27247     27248
     27249     27250     27249     27251     27250     27251     27252     27253
     27252     27254     27253     27254     27255     27256     27255     27257
     27256     27257     27258     27259     27258     27260     27259     27260
     27261     27262     27261     27263     27262     27263     27264     27265
     27264     27266     27265     27266     27267     27268     27267     27269
     27268     27269     27270     27271     27270     27272     27271     27272
     27273     27274     27273     27275     27274     27275     27276     27277
     27276     27278     27277     27278     27279     27280     27279     27281
     27280     27281     27282     27283     27282     27284     27283     27284
     27285     27286     27285     27287     27286     27287     27288     27289
     27288     27290     27289     27290     27291     27292     27291     27293
     27292     27293     27294     27295     27294     27296     27295     27296
     27297     27298     27297     27299     27298     27299     27300     27301
     27300     27302     27301     27302     27303     27304     27303     27305
     27304     27305     27306     27307     27306     27308     27307     27308
     27309     27310     27309     27311     27310     27311     27312     27313
     27312     27314     27313     27314     27315     27316     27315     27317
     27316     27317     27318     27319     27318     27320     27319     27320
     27321     27322     27321     27323     27322     27323     27324     27325
     27324     27326     27325     27326     27327     27328     27327     27329
     27328     27329     27330     27331     27330     27332     27331     27332
     27333     27334     27333     27335     27334     27335     27336     27337
     27336     27338     27337     27338     27339     27340     27339     27341
     27340     27341     27342     27343     27342     27344     27343     27344
     27345     27346     27345     27347     27346     27347     27348     27349
     27348     27350     27349     27350     27351     27352     27351     27353
     27352     27353     27354     27355     27354     27356     27355     27356
     27357     27358     27357     27359     27358     27359     27360     27361
     27360     27362     27361     27362     27363     27364     27363     27365
     27364     27365     27366     27367     27366     27368     27367     27368
     27369     27370     27369     27371     27370     27371     27372     27373
     27372     27374     27373     27374     27375     27376     27375     27377
     27376     27377     27378     27379     27378     27380     27379     27380
     27381     27382     27381     27383     27382     27383     27384     27385
     27384     27386     27385     27386     27387     27388     27387     27389
     27388     27389     27390     27391     27390     27392     27391     27392
     27393     27394     27393     27395     27394     27395     27396     27397
     27396     27398     27397     27398     27399     27400     27399     27401
     27400     27401     27402     27403     27402     27404     27403     27404
     27405     27406     27405     27407     27406     27407     27408     27409
     27408     27410     27409     27410     27411     27412     27411     27413
     27412     27413     27414     27415     27414     27416     27415     27416
     27417     27418     27417     27419     27418     27419     27420     27421
     27420     27422     27421     27422     27423     27424     27423     27425
     27424     27425     27426     27427     27426     27428     27427     27428
     27429     27430     27429     27431     27430     27431     27432     27433
     27432     27434     27433     27434     27435     27436     27435     27437
     27436     27437     27438     27439     27438     27440     27439     27440
     27441     27442     27441     27443     27442     27443     27444     27445
     27444     27446     27445     27446     27447     27448     27447     27449
     27448     27449     27450     27451     27450     27452     27451     27452
     27453     27454     27453     27455     27454     27455     27456     27457
     27456     27458     27457     27458     27459     27460     27459     27461
     27460     27461     27462     27463     27462     27464     27463     27464
     27465     27466     27465     27467     27466     27467     27468     27469
     27468     27470     27469     27470     27471     27472     27471     27473
     27472     27473     27474     27475     27474     27476     27475     27476
     27477     27478     27477     27479     27478     27479     27480     27481
     27480     27482     27481     27482     27483     27484     27483     27485
     27484     27485     27486     27487     27486     27488     27487     27488
     27489     27490     27489     27491     27490     27491     27492     27493
     27492     27494     27493     27494     27495     27496     27495     27497
     27496     27497     27498     27499     27498     27500     27499     27500
     27501     27502     27501     27503     27502     27503     27504     27505
     27504     27506     27505     27506     27507     27508     27507     27509
     27508     27509     27510     27511     27510     27512     27511     27512
     27513     27514     27513     27515     27514     27515     27516     27517
     27516     27518     27517     27518     27519     27520     27519     27521
     27520     27521     27522     27523     27522     27524     27523     27524
     27525     27526     27525     27527     27526     27527     27528     27529
     27528     27530     27529     27530     27531     27532     27531     27533
     27532     27533     27534     27535     27534     27536     27535     27536
     27537     27538     27537     27539     27538     27539     27540     27541
     27540     27542     27541     27542     27543     27544     27543     27545
     27544     27545     27546     27547     27546     27548     27547     27548
     27549     27550     27549     27551     27550     27551     27552     27553
     27552     27554     27553     27554     27555     27556     27555     27557
     27556     27557     27558     27559     27558     27560     27559     27560
     27561     27562     27561     27563     27562     27563     27564     27565
     27564     27566     27565     27566     27567     27568     27567     27569
     27568     27569     27570     27571     27570     27572     27571     27572
     27573     27574     27573     27575     27574     27575     27576     27577
     27576     27578     27577     27578     27579     27580     27579     27581
     27580     27581     27582     27583     27582     27584     27583     27584
     27585     27586     27585     27587     27586     27587     27588     27589
     27588     27590     27589     27590     27591     27592     27591     27593
     27592     27593     27594     27595     27594     27596     27595     27596
     27597     27598     27597     27599     27598     27599     27600     27601
     27600     27602     27601     27602     27603     27604     27603     27605
     27604     27605     27606     27607     27606     27608     27607     27608
     27609     27610     27609     27611     27610     27611     27612     27613
     27612     27614     27613     27614     27615     27616     27615     27617
     27616     27617     27618     27619     27618     27620     27619     27620
     27621     27622     27621     27623     27622     27623     27624     27625
     27624     27626     27625     27626     27627     27628     27627     27629
     27628     27629     27630     27631     27630     27632     27631     27632
     27633     27634     27633     27635     27634     27635     27636     27637
     27636     27638     27637     27638     27639     27640     27639     27641
     27640     27641     27642     27643     27642     27644     27643     27644
     27645     27646     27645     27647     27646     27647     27648     27649
     27648     27650     27649     27650     27651     27652     27651     27653
     27652     27653     27654     27655     27654     27656     27655     27656
     27657     27658     27657     27659     27658     27659     27660     27661
     27660     27662     27661     27662     27663     27664     27663     27665
     27664     27665     27666     27667     27666     27668     27667     27668
     27669     27670     27669     27671     27670     27671     27672     27673
     27672     27674     27673     27674     27675     27676     27675     27677
     27676     27677     27678     27679     27678     27680     27679     27680
     27681     27682     27681     27683     27682     27683     27684     27685
     27684     27686     27685     27686     27687     27688     27687     27689
     27688     27689     27690     27691     27690     27692     27691     27692
     27693     27694     27693     27695     27694     27695     27696     27697
     27696     27698     27697     27698     27699     27700     27699     27701
     27700     27701     27702     27703     27702     27704     27703     27704
     27705     27706     27705     27707     27706     27707     27708     27709
     27708     27710     27709     27710     27711     27712     27711     27713
     27712     27713     27714     27715     27714     27716     27715     27716
     27717     27718     27717     27719     27718     27719     27720     27721
     27720     27722     27721     27722     27723     27724     27723     27725
     27724     27725     27726     27727     27726     27728     27727     27728
     27729     27730     27729     27731     27730     27731     27732     27733
     27732     27734     27733     27734     27735     27736     27735     27737
     27736     27737     27738     27739     27738     27740     27739     27740
     27741     27742     27741     27743     27742     27743     27744     27745
     27744     27746     27745     27746     27747     27748     27747     27749
     27748     27749     27750     27751     27750     27752     27751     27752
     27753     27754     27753     27755     27754     27755     27756     27757
     27756     27758     27757     27758     27759     27760     27759     27761
     27760     27761     27762     27763     27762     27764     27763     27764
     27765     27766     27765     27767     27766     27767     27768     27769
     27768     27770     27769     27770     27771     27772     27771     27773
     27772     27773     27774     27775     27774     27776     27775     27776
     27777     27778     27777     27779     27778     27779     27780     27781
     27780     27782     27781     27782     27783     27784     27783     27785
     27784     27785     27786     27787     27786     27788     27787     27788
     27789     27790     27789     27791     27790     27791     27792     27793
     27792     27794     27793     27794     27795     27796     27795     27797
     27796     27797     27798     27799     27798     27800     27799     27800
     27801     27802     27801     27803     27802     27803     27804     27805
     27804     27806     27805     27806     27807     27808     27807     27809
     27808     27809     27810     27811     27810     27812     27811     27812
     27813     27814     27813     27815     27814     27815     27816     27817
     27816     27818     27817     27818     27819     27820     27819     27821
     27820     27821     27822     27823     27822     27824     27823     27824
     27825     27826     27825     27827     27826     27827     27828     27829
     27828     27830     27829     27830     27831     27832     27831     27833
     27832     27833     27834     27835     27834     27836     27835     27836
     27837     27838     27837     27839     27838     27839     27840     27841
     27840     27842     27841     27842     27843     27844     27843     27845
     27844     27845     27846     27847     27846     27848     27847     27848
     27849     27850     27849     27851     27850     27851     27852     27853
     27852     27854     27853     27854     27855     27856     27855     27857
     27856     27857     27858     27859     27858     27860     27859     27860
     27861     27862     27861     27863     27862     27863     27864     27865
     27864     27866     27865     27866     27867     27868     27867     27869
     27868     27869     27870     27871     27870     27872     27871     27872
     27873     27874     27873     27875     27874     27875     27876     27877
     27876     27878     27877     27878     27879     27880     27879     27881
     27880     27881     27882     27883     27882     27884     27883     27884
     27885     27886     27885     27887     27886     27887     27888     27889
     27888     27890     27889     27890     27891     27892     27891     27893
     27892     27893     27894     27895     27894     27896     27895     27896
     27897     27898     27897     27899     27898     27899     27900     27901
     27900     27902     27901     27902     27903     27904     27903     27905
     27904     27905     27906     27907     27906     27908     27907     27908
     27909     27910     27909     27911     27910     27911     27912     27913
     27912     27914     27913     27914     27915     27916     27915     27917
     27916     27917     27918     27919     27918     27920     27919     27920
     27921     27922     27921     27923     27922     27923     27924     27925
     27924     27926     27925     27926     27927     27928     27927     27929
     27928     27929     27930     27931     27930     27932     27931     27932
     27933     27934     27933     27935     27934     27935     27936     27937
     27936     27938     27937     27938     27939     27940     27939     27941
     27940     27941     27942     27943     27942     27944     27943     27944
     27945     27946     27945     27947     27946     27947     27948     27949
     27948     27950     27949     27950     27951     27952     27951     27953
     27952     27953     27954     27955     27954     27956     27955     27956
     27957     27958     27957     27959     27958     27959     27960     27961
     27960     27962     27961     27962     27963     27964     27963     27965
     27964     27965     27966     27967     27966     27968     27967     27968
     27969     27970     27969     27971     27970     27971     27972     27973
     27972     27974     27973     27974     27975     27976     27975     27977
     27976     27977     27978     27979     27978     27980     27979     27980
     27981     27982     27981     27983     27982     27983     27984     27985
     27984     27986     27985     27986     27987     27988     27987     27989
     27988     27989     27990     27991     27990     27992     27991     27992
     27993     27994     27993     27995     27994     27995     27996     27997
     27996     27998     27997     27998     27999     28000     27999     28001
     28000     28001     28002     28003     28002     28004     28003     28004
     28005     28006     28005     28007     28006     28007     28008     28009
     28008     28010     28009     28010     28011     28012     28011     28013
     28012     28013     28014     28015     28014     28016     28015     28016
     28017     28018     28017     28019     28018     28019     28020     28021
     28020     28022     28021     28022     28023     28024     28023     28025
     28024     28025     28026     28027     28026     28028     28027     28028
     28029     28030     28029     28031     28030     28031     28032     28033
     28032     28034     28033     28034     28035     28036     28035     28037
     28036     28037     28038     28039     28038     28040     28039     28040
     28041     28042     28041     28043     28042     28043     28044     28045
     28044     28046     28045     28046     28047     28048     28047     28049
     28048     28049     28050     28051     28050     28052     28051     28052
     28053     28054     28053     28055     28054     28055     28056     28057
     28056     28058     28057     28058     28059     28060     28059     28061
     28060     28061     28062     28063     28062     28064     28063     28064
     28065     28066     28065     28067     28066     28067     28068     28069
     28068     28070     28069     28070     28071     28072     28071     28073
     28072     28073     28074     28075     28074     28076     28075     28076
     28077     28078     28077     28079     28078     28079     28080     28081
     28080     28082     28081     28082     28083     28084     28083     28085
     28084     28085     28086     28087     28086     28088     28087     28088
     28089     28090     28089     28091     28090     28091     28092     28093
     28092     28094     28093     28094     28095     28096     28095     28097
     28096     28097     28098     28099     28098     28100     28099     28100
     28101     28102     28101     28103     28102     28103     28104     28105
     28104     28106     28105     28106     28107     28108     28107     28109
     28108     28109     28110     28111     28110     28112     28111     28112
     28113     28114     28113     28115     28114     28115     28116     28117
     28116     28118     28117     28118     28119     28120     28119     28121
     28120     28121     28122     28123     28122     28124     28123     28124
     28125     28126     28125     28127     28126     28127     28128     28129
     28128     28130     28129     28130     28131     28132     28131     28133
     28132     28133     28134     28135     28134     28136     28135     28136
     28137     28138     28137     28139     28138     28139     28140     28141
     28140     28142     28141     28142     28143     28144     28143     28145
     28144     28145     28146     28147     28146     28148     28147     28148
     28149     28150     28149     28151     28150     28151     28152     28153
     28152     28154     28153     28154     28155     28156     28155     28157
     28156     28157     28158     28159     28158     28160     28159     28160
     28161     28162     28161     28163     28162     28163     28164     28165
     28164     28166     28165     28166     28167     28168     28167     28169
     28168     28169     28170     28171     28170     28172     28171     28172
     28173     28174     28173     28175     28174     28175     28176     28177
     28176     28178     28177     28178     28179     28180     28179     28181
     28180     28181     28182     28183     28182     28184     28183     28184
     28185     28186     28185     28187     28186     28187     28188     28189
     28188     28190     28189     28190     28191     28192     28191     28193
     28192     28193     28194     28195     28194     28196     28195     28196
     28197     28198     28197     28199     28198     28199     28200     28201
     28200     28202     28201     28202     28203     28204     28203     28205
     28204     28205     28206     28207     28206     28208     28207     28208
     28209     28210     28209     28211     28210     28211     28212     28213
     28212     28214     28213     28214     28215     28216     28215     28217
     28216     28217     28218     28219     28218     28220     28219     28220
     28221     28222     28221     28223     28222     28223     28224     28225
     28224     28226     28225     28226     28227     28228     28227     28229
     28228     28229     28230     28231     28230     28232     28231     28232
     28233     28234     28233     28235     28234     28235     28236     28237
     28236     28238     28237     28238     28239     28240     28239     28241
     28240     28241     28242     28243     28242     28244     28243     28244
     28245     28246     28245     28247     28246     28247     28248     28249
     28248     28250     28249     28250     28251     28252     28251     28253
     28252     28253     28254     28255     28254     28256     28255     28256
     28257     28258     28257     28259     28258     28259     28260     28261
     28260     28262     28261     28262     28263     28264     28263     28265
     28264     28265     28266     28267     28266     28268     28267     28268
     28269     28270     28269     28271     28270     28271     28272     28273
     28272     28274     28273     28274     28275     28276     28275     28277
     28276     28277     28278     28279     28278     28280     28279     28280
     28281     28282     28281     28283     28282     28283     28284     28285
     28284     28286     28285     28286     28287     28288     28287     28289
     28288     28289     28290     28291     28290     28292     28291     28292
     28293     28294     28293     28295     28294     28295     28296     28297
     28296     28298     28297     28298     28299     28300     28299     28301
     28300     28301     28302     28303     28302     28304     28303     28304
     28305     28306     28305     28307     28306     28307     28308     28309
     28308     28310     28309     28310     28311     28312     28311     28313
     28312     28313     28314     28315     28314     28316     28315     28316
     28317     28318     28317     28319     28318     28319     28320     28321
     28320     28322     28321     28322     28323     28324     28323     28325
     28324     28325     28326     28327     28326     28328     28327     28328
     28329     28330     28329     28331     28330     28331     28332     28333
     28332     28334     28333     28334     28335     28336     28335     28337
     28336     28337     28338     28339     28338     28340     28339     28340
     28341     28342     28341     28343     28342     28343     28344     28345
     28344     28346     28345     28346     28347     28348     28347     28349
     28348     28349     28350     28351     28350     28352     28351     28352
     28353     28354     28353     28355     28354     28355     28356     28357
     28356     28358     28357     28358     28359     28360     28359     28361
     28360     28361     28362     28363     28362     28364     28363     28364
     28365     28366     28365     28367     28366     28367     28368     28369
     28368     28370     28369     28370     28371     28372     28371     28373
     28372     28373     28374     28375     28374     28376     28375     28376
     28377     28378     28377     28379     28378     28379     28380     28381
     28380     28382     28381     28382     28383     28384     28383     28385
     28384     28385     28386     28387     28386     28388     28387     28388
     28389     28390     28389     28391     28390     28391     28392     28393
     28392     28394     28393     28394     28395     28396     28395     28397
     28396     28397     28398     28399     28398     28400     28399     28400
     28401     28402     28401     28403     28402     28403     28404     28405
     28404     28406     28405     28406     28407     28408     28407     28409
     28408     28409     28410     28411     28410     28412     28411     28412
     28413     28414     28413     28415     28414     28415     28416     28417
     28416     28418     28417     28418     28419     28420     28419     28421
     28420     28421     28422     28423     28422     28424     28423     28424
     28425     28426     28425     28427     28426     28427     28428     28429
     28428     28430     28429     28430     28431     28432     28431     28433
     28432     28433     28434     28435     28434     28436     28435     28436
     28437     28438     28437     28439     28438     28439     28440     28441
     28440     28442     28441     28442     28443     28444     28443     28445
     28444     28445     28446     28447     28446     28448     28447     28448
     28449     28450     28449     28451     28450     28451     28452     28453
     28452     28454     28453     28454     28455     28456     28455     28457
     28456     28457     28458     28459     28458     28460     28459     28460
     28461     28462     28461     28463     28462     28463     28464     28465
     28464     28466     28465     28466     28467     28468     28467     28469
     28468     28469     28470     28471     28470     28472     28471     28472
     28473     28474     28473     28475     28474     28475     28476     28477
     28476     28478     28477     28478     28479     28480     28479     28481
     28480     28481     28482     28483     28482     28484     28483     28484
     28485     28486     28485     28487     28486     28487     28488     28489
     28488     28490     28489     28490     28491     28492     28491     28493
     28492     28493     28494     28495     28494     28496     28495     28496
     28497     28498     28497     28499     28498     28499     28500     28501
     28500     28502     28501     28502     28503     28504     28503     28505
     28504     28505     28506     28507     28506     28508     28507     28508
     28509     28510     28509     28511     28510     28511     28512     28513
     28512     28514     28513     28514     28515     28516     28515     28517
     28516     28517     28518     28519     28518     28520     28519     28520
     28521     28522     28521     28523     28522     28523     28524     28525
     28524     28526     28525     28526     28527     28528     28527     28529
     28528     28529     28530     28531     28530     28532     28531     28532
     28533     28534     28533     28535     28534     28535     28536     28537
     28536     28538     28537     28538     28539     28540     28539     28541
     28540     28541     28542     28543     28542     28544     28543     28544
     28545     28546     28545     28547     28546     28547     28548     28549
     28548     28550     28549     28550     28551     28552     28551     28553
     28552     28553     28554     28555     28554     28556     28555     28556
     28557     28558     28557     28559     28558     28559     28560     28561
     28560     28562     28561     28562     28563     28564     28563     28565
     28564     28565     28566     28567     28566     28568     28567     28568
     28569     28570     28569     28571     28570     28571     28572     28573
     28572     28574     28573     28574     28575     28576     28575     28577
     28576     28577     28578     28579     28578     28580     28579     28580
     28581     28582     28581     28583     28582     28583     28584     28585
     28584     28586     28585     28586     28587     28588     28587     28589
     28588     28589     28590     28591     28590     28592     28591     28592
     28593     28594     28593     28595     28594     28595     28596     28597
     28596     28598     28597     28598     28599     28600     28599     28601
     28600     28601     28602     28603     28602     28604     28603     28604
     28605     28606     28605     28607     28606     28607     28608     28609
     28608     28610     28609     28610     28611     28612     28611     28613
     28612     28613     28614     28615     28614     28616     28615     28616
     28617     28618     28617     28619     28618     28619     28620     28621
     28620     28622     28621     28622     28623     28624     28623     28625
     28624     28625     28626     28627     28626     28628     28627     28628
     28629     28630     28629     28631     28630     28631     28632     28633
     28632     28634     28633     28634     28635     28636     28635     28637
     28636     28637     28638     28639     28638     28640     28639     28640
     28641     28642     28641     28643     28642     28643     28644     28645
     28644     28646     28645     28646     28647     28648     28647     28649
     28648     28649     28650     28651     28650     28652     28651     28652
     28653     28654     28653     28655     28654     28655     28656     28657
     28656     28658     28657     28658     28659     28660     28659     28661
     28660     28661     28662     28663     28662     28664     28663     28664
     28665     28666     28665     28667     28666     28667     28668     28669
     28668     28670     28669     28670     28671     28672     28671     28673
     28672     28673     28674     28675     28674     28676     28675     28676
     28677     28678     28677     28679     28678     28679     28680     28681
     28680     28682     28681     28682     28683     28684     28683     28685
     28684     28685     28686     28687     28686     28688     28687     28688
     28689     28690     28689     28691     28690     28691     28692     28693
     28692     28694     28693     28694     28695     28696     28695     28697
     28696     28697     28698     28699     28698     28700     28699     28700
     28701     28702     28701     28703     28702     28703     28704     28705
     28704     28706     28705     28706     28707     28708     28707     28709
     28708     28709     28710     28711     28710     28712     28711     28712
     28713     28714     28713     28715     28714     28715     28716     28717
     28716     28718     28717     28718     28719     28720     28719     28721
     28720     28721     28722     28723     28722     28724     28723     28724
     28725     28726     28725     28727     28726     28727     28728     28729
     28728     28730     28729     28730     28731     28732     28731     28733
     28732     28733     28734     28735     28734     28736     28735     28736
     28737     28738     28737     28739     28738     28739     28740     28741
     28740     28742     28741     28742     28743     28744     28743     28745
     28744     28745     28746     28747     28746     28748     28747     28748
     28749     28750     28749     28751     28750     28751     28752     28753
     28752     28754     28753     28754     28755     28756     28755     28757
     28756     28757     28758     28759     28758     28760     28759     28760
     28761     28762     28761     28763     28762     28763     28764     28765
     28764     28766     28765     28766     28767     28768     28767     28769
     28768     28769     28770     28771     28770     28772     28771     28772
     28773     28774     28773     28775     28774     28775     28776     28777
     28776     28778     28777     28778     28779     28780     28779     28781
     28780     28781     28782     28783     28782     28784     28783     28784
     28785     28786     28785     28787     28786     28787     28788     28789
     28788     28790     28789     28790     28791     28792     28791     28793
     28792     28793     28794     28795     28794     28796     28795     28796
     28797     28798     28797     28799     28798     28799     28800     28801
     28800     28802     28801     28802     28803     28804     28803     28805
     28804     28805     28806     28807     28806     28808     28807     28808
     28809     28810     28809     28811     28810     28811     28812     28813
     28812     28814     28813     28814     28815     28816     28815     28817
     28816     28817     28818     28819     28818     28820     28819     28820
     28821     28822     28821     28823     28822     28823     28824     28825
     28824     28826     28825     28826     28827     28828     28827     28829
     28828     28829     28830     28831     28830     28832     28831     28832
     28833     28834     28833     28835     28834     28835     28836     28837
     28836     28838     28837     28838     28839     28840     28839     28841
     28840     28841     28842     28843     28842     28844     28843     28844
     28845     28846     28845     28847     28846     28847     28848     28849
     28848     28850     28849     28850     28851     28852     28851     28853
     28852     28853     28854     28855     28854     28856     28855     28856
     28857     28858     28857     28859     28858     28859     28860     28861
     28860     28862     28861     28862     28863     28864     28863     28865
     28864     28865     28866     28867     28866     28868     28867     28868
     28869     28870     28869     28871     28870     28871     28872     28873
     28872     28874     28873     28874     28875     28876     28875     28877
     28876     28877     28878     28879     28878     28880     28879     28880
     28881     28882     28881     28883     28882     28883     28884     28885
     28884     28886     28885     28886     28887     28888     28887     28889
     28888     28889     28890     28891     28890     28892     28891     28892
     28893     28894     28893     28895     28894     28895     28896     28897
     28896     28898     28897     28898     28899     28900     28899     28901
     28900     28901     28902     28903     28902     28904     28903     28904
     28905     28906     28905     28907     28906     28907     28908     28909
     28908     28910     28909     28910     28911     28912     28911     28913
     28912     28913     28914     28915     28914     28916     28915     28916
     28917     28918     28917     28919     28918     28919     28920     28921
     28920     28922     28921     28922     28923     28924     28923     28925
     28924     28925     28926     28927     28926     28928     28927     28928
     28929     28930     28929     28931     28930     28931     28932     28933
     28932     28934     28933     28934     28935     28936     28935     28937
     28936     28937     28938     28939     28938     28940     28939     28940
     28941     28942     28941     28943     28942     28943     28944     28945
     28944     28946     28945     28946     28947     28948     28947     28949
     28948     28949     28950     28951     28950     28952     28951     28952
     28953     28954     28953     28955     28954     28955     28956     28957
     28956     28958     28957     28958     28959     28960     28959     28961
     28960     28961     28962     28963     28962     28964     28963     28964
     28965     28966     28965     28967     28966     28967     28968     28969
     28968     28970     28969     28970     28971     28972     28971     28973
     28972     28973     28974     28975     28974     28976     28975     28976
     28977     28978     28977     28979     28978     28979     28980     28981
     28980     28982     28981     28982     28983     28984     28983     28985
     28984     28985     28986     28987     28986     28988     28987     28988
     28989     28990     28989     28991     28990     28991     28992     28993
     28992     28994     28993     28994     28995     28996     28995     28997
     28996     28997     28998     28999     28998     29000     28999     29000
     29001     29002     29001     29003     29002     29003     29004     29005
     29004     29006     29005     29006     29007     29008     29007     29009
     29008     29009     29010     29011     29010     29012     29011     29012
     29013     29014     29013     29015     29014     29015     29016     29017
     29016     29018     29017     29018     29019     29020     29019     29021
     29020     29021     29022     29023     29022     29024     29023     29024
     29025     29026     29025     29027     29026     29027     29028     29029
     29028     29030     29029     29030     29031     29032     29031     29033
     29032     29033     29034     29035     29034     29036     29035     29036
     29037     29038     29037     29039     29038     29039     29040     29041
     29040     29042     29041     29042     29043     29044     29043     29045
     29044     29045     29046     29047     29046     29048     29047     29048
     29049     29050     29049     29051     29050     29051     29052     29053
     29052     29054     29053     29054     29055     29056     29055     29057
     29056     29057     29058     29059     29058     29060     29059     29060
     29061     29062     29061     29063     29062     29063     29064     29065
     29064     29066     29065     29066     29067     29068     29067     29069
     29068     29069     29070     29071     29070     29072     29071     29072
     29073     29074     29073     29075     29074     29075     29076     29077
     29076     29078     29077     29078     29079     29080     29079     29081
     29080     29081     29082     29083     29082     29084     29083     29084
     29085     29086     29085     29087     29086     29087     29088     29089
     29088     29090     29089     29090     29091     29092     29091     29093
     29092     29093     29094     29095     29094     29096     29095     29096
     29097     29098     29097     29099     29098     29099     29100     29101
     29100     29102     29101     29102     29103     29104     29103     29105
     29104     29105     29106     29107     29106     29108     29107     29108
     29109     29110     29109     29111     29110     29111     29112     29113
     29112     29114     29113     29114     29115     29116     29115     29117
     29116     29117     29118     29119     29118     29120     29119     29120
     29121     29122     29121     29123     29122     29123     29124     29125
     29124     29126     29125     29126     29127     29128     29127     29129
     29128     29129     29130     29131     29130     29132     29131     29132
     29133     29134     29133     29135     29134     29135     29136     29137
     29136     29138     29137     29138     29139     29140     29139     29141
     29140     29141     29142     29143     29142     29144     29143     29144
     29145     29146     29145     29147     29146     29147     29148     29149
     29148     29150     29149     29150     29151     29152     29151     29153
     29152     29153     29154     29155     29154     29156     29155     29156
     29157     29158     29157     29159     29158     29159     29160     29161
     29160     29162     29161     29162     29163     29164     29163     29165
     29164     29165     29166     29167     29166     29168     29167     29168
     29169     29170     29169     29171     29170     29171     29172     29173
     29172     29174     29173     29174     29175     29176     29175     29177
     29176     29177     29178     29179     29178     29180     29179     29180
     29181     29182     29181     29183     29182     29183     29184     29185
     29184     29186     29185     29186     29187     29188     29187     29189
     29188     29189     29190     29191     29190     29192     29191     29192
     29193     29194     29193     29195     29194     29195     29196     29197
     29196     29198     29197     29198     29199     29200     29199     29201
     29200     29201     29202     29203     29202     29204     29203     29204
     29205     29206     29205     29207     29206     29207     29208     29209
     29208     29210     29209     29210     29211     29212     29211     29213
     29212     29213     29214     29215     29214     29216     29215     29216
     29217     29218     29217     29219     29218     29219     29220     29221
     29220     29222     29221     29222     29223     29224     29223     29225
     29224     29225     29226     29227     29226     29228     29227     29228
     29229     29230     29229     29231     29230     29231     29232     29233
     29232     29234     29233     29234     29235     29236     29235     29237
     29236     29237     29238     29239     29238     29240     29239     29240
     29241     29242     29241     29243     29242     29243     29244     29245
     29244     29246     29245     29246     29247     29248     29247     29249
     29248     29249     29250     29251     29250     29252     29251     29252
     29253     29254     29253     29255     29254     29255     29256     29257
     29256     29258     29257     29258     29259     29260     29259     29261
     29260     29261     29262     29263     29262     29264     29263     29264
     29265     29266     29265     29267     29266     29267     29268     29269
     29268     29270     29269     29270     29271     29272     29271     29273
     29272     29273     29274     29275     29274     29276     29275     29276
     29277     29278     29277     29279     29278     29279     29280     29281
     29280     29282     29281     29282     29283     29284     29283     29285
     29284     29285     29286     29287     29286     29288     29287     29288
     29289     29290     29289     29291     29290     29291     29292     29293
     29292     29294     29293     29294     29295     29296     29295     29297
     29296     29297     29298     29299     29298     29300     29299     29300
     29301     29302     29301     29303     29302     29303     29304     29305
     29304     29306     29305     29306     29307     29308     29307     29309
     29308     29309     29310     29311     29310     29312     29311     29312
     29313     29314     29313     29315     29314     29315     29316     29317
     29316     29318     29317     29318     29319     29320     29319     29321
     29320     29321     29322     29323     29322     29324     29323     29324
     29325     29326     29325     29327     29326     29327     29328     29329
     29328     29330     29329     29330     29331     29332     29331     29333
     29332     29333     29334     29335     29334     29336     29335     29336
     29337     29338     29337     29339     29338     29339     29340     29341
     29340     29342     29341     29342     29343     29344     29343     29345
     29344     29345     29346     29347     29346     29348     29347     29348
     29349     29350     29349     29351     29350     29351     29352     29353
     29352     29354     29353     29354     29355     29356     29355     29357
     29356     29357     29358     29359     29358     29360     29359     29360
     29361     29362     29361     29363     29362     29363     29364     29365
     29364     29366     29365     29366     29367     29368     29367     29369
     29368     29369     29370     29371     29370     29372     29371     29372
     29373     29374     29373     29375     29374     29375     29376     29377
     29376     29378     29377     29378     29379     29380     29379     29381
     29380     29381     29382     29383     29382     29384     29383     29384
     29385     29386     29385     29387     29386     29387     29388     29389
     29388     29390     29389     29390     29391     29392     29391     29393
     29392     29393     29394     29395     29394     29396     29395     29396
     29397     29398     29397     29399     29398     29399     29400     29401
     29400     29402     29401     29402     29403     29404     29403     29405
     29404     29405     29406     29407     29406     29408     29407     29408
     29409     29410     29409     29411     29410     29411     29412     29413
     29412     29414     29413     29414     29415     29416     29415     29417
     29416     29417     29418     29419     29418     29420     29419     29420
     29421     29422     29421     29423     29422     29423     29424     29425
     29424     29426     29425     29426     29427     29428     29427     29429
     29428     29429     29430     29431     29430     29432     29431     29432
     29433     29434     29433     29435     29434     29435     29436     29437
     29436     29438     29437     29438     29439     29440     29439     29441
     29440     29441     29442     29443     29442     29444     29443     29444
     29445     29446     29445     29447     29446     29447     29448     29449
     29448     29450     29449     29450     29451     29452     29451     29453
     29452     29453     29454     29455     29454     29456     29455     29456
     29457     29458     29457     29459     29458     29459     29460     29461
     29460     29462     29461     29462     29463     29464     29463     29465
     29464     29465     29466     29467     29466     29468     29467     29468
     29469     29470     29469     29471     29470     29471     29472     29473
     29472     29474     29473     29474     29475     29476     29475     29477
     29476     29477     29478     29479     29478     29480     29479     29480
     29481     29482     29481     29483     29482     29483     29484     29485
     29484     29486     29485     29486     29487     29488     29487     29489
     29488     29489     29490     29491     29490     29492     29491     29492
     29493     29494     29493     29495     29494     29495     29496     29497
     29496     29498     29497     29498     29499     29500     29499     29501
     29500     29501     29502     29503     29502     29504     29503     29504
     29505     29506     29505     29507     29506     29507     29508     29509
     29508     29510     29509     29510     29511     29512     29511     29513
     29512     29513     29514     29515     29514     29516     29515     29516
     29517     29518     29517     29519     29518     29519     29520     29521
     29520     29522     29521     29522     29523     29524     29523     29525
     29524     29525     29526     29527     29526     29528     29527     29528
     29529     29530     29529     29531     29530     29531     29532     29533
     29532     29534     29533     29534     29535     29536     29535     29537
     29536     29537     29538     29539     29538     29540     29539     29540
     29541     29542     29541     29543     29542     29543     29544     29545
     29544     29546     29545     29546     29547     29548     29547     29549
     29548     29549     29550     29551     29550     29552     29551     29552
     29553     29554     29553     29555     29554     29555     29556     29557
     29556     29558     29557     29558     29559     29560     29559     29561
     29560     29561     29562     29563     29562     29564     29563     29564
     29565     29566     29565     29567     29566     29567     29568     29569
     29568     29570     29569     29570     29571     29572     29571     29573
     29572     29573     29574     29575     29574     29576     29575     29576
     29577     29578     29577     29579     29578     29579     29580     29581
     29580     29582     29581     29582     29583     29584     29583     29585
     29584     29585     29586     29587     29586     29588     29587     29588
     29589     29590     29589     29591     29590     29591     29592     29593
     29592     29594     29593     29594     29595     29596     29595     29597
     29596     29597     29598     29599     29598     29600     29599     29600
     29601     29602     29601     29603     29602     29603     29604     29605
     29604     29606     29605     29606     29607     29608     29607     29609
     29608     29609     29610     29611     29610     29612     29611     29612
     29613     29614     29613     29615     29614     29615     29616     29617
     29616     29618     29617     29618     29619     29620     29619     29621
     29620     29621     29622     29623     29622     29624     29623     29624
     29625     29626     29625     29627     29626     29627     29628     29629
     29628     29630     29629     29630     29631     29632     29631     29633
     29632     29633     29634     29635     29634     29636     29635     29636
     29637     29638     29637     29639     29638     29639     29640     29641
     29640     29642     29641     29642     29643     29644     29643     29645
     29644     29645     29646     29647     29646     29648     29647     29648
     29649     29650     29649     29651     29650     29651     29652     29653
     29652     29654     29653     29654     29655     29656     29655     29657
     29656     29657     29658     29659     29658     29660     29659     29660
     29661     29662     29661     29663     29662     29663     29664     29665
     29664     29666     29665     29666     29667     29668     29667     29669
     29668     29669     29670     29671     29670     29672     29671     29672
     29673     29674     29673     29675     29674     29675     29676     29677
     29676     29678     29677     29678     29679     29680     29679     29681
     29680     29681     29682     29683     29682     29684     29683     29684
     29685     29686     29685     29687     29686     29687     29688     29689
     29688     29690     29689     29690     29691     29692     29691     29693
     29692     29693     29694     29695     29694     29696     29695     29696
     29697     29698     29697     29699     29698     29699     29700     29701
     29700     29702     29701     29702     29703     29704     29703     29705
     29704     29705     29706     29707     29706     29708     29707     29708
     29709     29710     29709     29711     29710     29711     29712     29713
     29712     29714     29713     29714     29715     29716     29715     29717
     29716     29717     29718     29719     29718     29720     29719     29720
     29721     29722     29721     29723     29722     29723     29724     29725
     29724     29726     29725     29726     29727     29728     29727     29729
     29728     29729     29730     29731     29730     29732     29731     29732
     29733     29734     29733     29735     29734     29735     29736     29737
     29736     29738     29737     29738     29739     29740     29739     29741
     29740     29741     29742     29743     29742     29744     29743     29744
     29745     29746     29745     29747     29746     29747     29748     29749
     29748     29750     29749     29750     29751     29752     29751     29753
     29752     29753     29754     29755     29754     29756     29755     29756
     29757     29758     29757     29759     29758     29759     29760     29761
     29760     29762     29761     29762     29763     29764     29763     29765
     29764     29765     29766     29767     29766     29768     29767     29768
     29769     29770     29769     29771     29770     29771     29772     29773
     29772     29774     29773     29774     29775     29776     29775     29777
     29776     29777     29778     29779     29778     29780     29779     29780
     29781     29782     29781     29783     29782     29783     29784     29785
     29784     29786     29785     29786     29787     29788     29787     29789
     29788     29789     29790     29791     29790     29792     29791     29792
     29793     29794     29793     29795     29794     29795     29796     29797
     29796     29798     29797     29798     29799     29800     29799     29801
     29800     29801     29802     29803     29802     29804     29803     29804
     29805     29806     29805     29807     29806     29807     29808     29809
     29808     29810     29809     29810     29811     29812     29811     29813
     29812     29813     29814     29815     29814     29816     29815     29816

     23464 !NTHETA: angles
         1         2         3         1         2         4         1         2        17
         1         5         6         1         5         7         1         5         8
         1         9        10         1         9        11         1         9        12
         1        13        14         1        13        15         1        13        16
         2         1         5         2         1         9         2         1        13
         2        17        18         2        17        19         2        17        23
         3         2         4         3         2        17         4         2        17
         5         1         9         5         1        13         6         5         7
         6         5         8         7         5         8         9         1        13
        10         9        11        10         9        12        11         9        12
        14        13        15        14        13        16        15        13        16
        17        23        20        18        17        19        18        17        23
        19        17        23        20        24        25        21        20        22
        21        20        23        21        20        24        22        20        23
        22        20        24        23        20        24        24        25        26
        24        25        27        24        25        28        25        28        29
        25        28        30        25        28        36        26        25        27
        26        25        28        27        25        28        28        30        31
        28        36        37        28        36        38        28        36        39
        29        28        30        29        28        36        30        28        36
        30        31        32        30        31        33        31        33        34
        31        33        35        31        33        45        32        31        33
        33        45        46        33        45        47        33        45        48
        34        33        35        34        33        45        35        33        45
        36        39        40        37        36        38        37        36        39
        38        36        39        39        40        41        39        40        42
        40        42        43        40        42        44        40        42        92
        41        40        42        42        92        93        42        92        94
        42        92        95        43        42        44        43        42        92
        44        42        92        45        48        49        45        48        50
        45        48        51        46        45        47        46        45        48
        47        45        48        48        51        52        48        51        53
        48        51        54        49        48        50        49        48        51
        50        48        51        51        54        55        51        54        56
        51        54        57        52        51        53        52        51        54
        53        51        54        54        57        58        54        57        59
        54        57        60        55        54        56        55        54        57
        56        54        57        57        60        61        57        60        62
        57        60        63        58        57        59        58        57        60
        59        57        60        60        63        64        60        63        65
        61        60        62        61        60        63        62        60        63
        63        65        66        63        65        67        64        63        65
        65        67        68        65        67        69        65        67        70
        66        65        67        67        70        71        67        70        72
        67        70        73        68        67        69        68        67        70
        69        67        70        70        73        74        70        73        75
        70        73        76        71        70        72        71        70        73
        72        70        73        73        76        77        73        76        78
        73        76        79        74        73        75        74        73        76
        75        73        76        76        79        80        76        79        81
        76        79        82        77        76        78        77        76        79
        78        76        79        79        82        83        79        82        84
        79        82        85        80        79        81        80        79        82
        81        79        82        82        85        86        82        85        87
        82        85        88        83        82        84        83        82        85
        84        82        85        85        88        89        85        88        90
        85        88        91        86        85        87        86        85        88
        87        85        88        89        88        90        89        88        91
        90        88        91        92        95        96        92        95        97
        92        95        98        93        92        94        93        92        95
        94        92        95        95        98        99        95        98       100
        95        98       101        96        95        97        96        95        98
        97        95        98        98       101       102        98       101       103
        98       101       104        99        98       100        99        98       101
       100        98       101       101       104       105       101       104       106
       101       104       107       102       101       103       102       101       104
       103       101       104       104       107       108       104       107       109
       104       107       110       105       104       106       105       104       107
       106       104       107       107       110       111       107       110       112
       107       110       113       108       107       109       108       107       110
       109       107       110       110       113       114       110       113       115
       110       113       116       111       110       112       111       110       113
       112       110       113       113       116       117       113       116       118
       113       116       119       114       113       115       114       113       116
       115       113       116       116       119       120       116       119       121
       116       119       122       117       116       118       117       116       119
       118       116       119       119       122       123       119       122       124
       119       122       125       120       119       121       120       119       122
       121       119       122       122       125       126       122       125       127
       122       125       128       123       122       124       123       122       125
       124       122       125       125       128       129       125       128       130
       125       128       131       126       125       127       126       125       128
       127       125       128       128       131       132       128       131       133
       128       131       134       129       128       130       129       128       131
       130       128       131       132       131       133       132       131       134
       133       131       134       135       136       137       135       136       138
       135       136       151       135       139       140       135       139       141
       135       139       142       135       143       144       135       143       145
       135       143       146       135       147       148       135       147       149
       135       147       150       136       135       139       136       135       143
       136       135       147       136       151       152       136       151       153
       136       151       157       137       136       138       137       136       151
       138       136       151       139       135       143       139       135       147
       140       139       141       140       139       142       141       139       142
       143       135       147       144       143       145       144       143       146
       145       143       146       148       147       149       148       147       150
       149       147       150       151       157       154       152       151       153
       152       151       157       153       151       157       154       158       159
       155       154       156       155       154       157       155       154       158
       156       154       157       156       154       158       157       154       158
       158       159       160       158       159       161       158       159       162
       159       162       163       159       162       164       159       162       170
       160       159       161       160       159       162       161       159       162
       162       164       165       162       170       171       162       170       172
       162       170       173       163       162       164       163       162       170
       164       162       170       164       165       166       164       165       167
       165       167       168       165       167       169       165       167       179
       166       165       167       167       179       180       167       179       181
       167       179       182       168       167       169       168       167       179
       169       167       179       170       173       174       171       170       172
       171       170       173       172       170       173       173       174       175
       173       174       176       174       176       177       174       176       178
       174       176       226       175       174       176       176       226       227
       176       226       228       176       226       229       177       176       178
       177       176       226       178       176       226       179       182       183
       179       182       184       179       182       185       180       179       181
       180       179       182       181       179       182       182       185       186
       182       185       187       182       185       188       183       182       184
       183       182       185       184       182       185       185       188       189
       185       188       190       185       188       191       186       185       187
       186       185       188       187       185       188       188       191       192
       188       191       193       188       191       194       189       188       190
       189       188       191       190       188       191       191       194       195
       191       194       196       191       194       197       192       191       193
       192       191       194       193       191       194       194       197       198
       194       197       199       195       194       196       195       194       197
       196       194       197       197       199       200       197       199       201
       198       197       199       199       201       202       199       201       203
       199       201       204       200       199       201       201       204       205
       201       204       206       201       204       207       202       201       203
       202       201       204       203       201       204       204       207       208
       204       207       209       204       207       210       205       204       206
       205       204       207       206       204       207       207       210       211
       207       210       212       207       210       213       208       207       209
       208       207       210       209       207       210       210       213       214
       210       213       215       210       213       216       211       210       212
       211       210       213       212       210       213       213       216       217
       213       216       218       213       216       219       214       213       215
       214       213       216       215       213       216       216       219       220
       216       219       221       216       219       222       217       216       218
       217       216       219       218       216       219       219       222       223
       219       222       224       219       222       225       220       219       221
       220       219       222       221       219       222       223       222       224
       223       222       225       224       222       225       226       229       230
       226       229       231       226       229       232       227       226       228
       227       226       229       228       226       229       229       232       233
       229       232       234       229       232       235       230       229       231
       230       229       232       231       229       232       232       235       236
       232       235       237       232       235       238       233       232       234
       233       232       235       234       232       235       235       238       239
       235       238       240       235       238       241       236       235       237
       236       235       238       237       235       238       238       241       242
       238       241       243       238       241       244       239       238       240
       239       238       241       240       238       241       241       244       245
       241       244       246       241       244       247       242       241       243
       242       241       244       243       241       244       244       247       248
       244       247       249       244       247       250       245       244       246
       245       244       247       246       244       247       247       250       251
       247       250       252       247       250       253       248       247       249
       248       247       250       249       247       250       250       253       254
       250       253       255       250       253       256       251       250       252
       251       250       253       252       250       253       253       256       257
       253       256       258       253       256       259       254       253       255
       254       253       256       255       253       256       256       259       260
       256       259       261       256       259       262       257       256       258
       257       256       259       258       256       259       259       262       263
       259       262       264       259       262       265       260       259       261
       260       259       262       261       259       262       262       265       266
       262       265       267       262       265       268       263       262       264
       263       262       265       264       262       265       266       265       267
       266       265       268       267       265       268       269       270       271
       269       270       272       269       270       285       269       273       274
       269       273       275       269       273       276       269       277       278
       269       277       279       269       277       280       269       281       282
       269       281       283       269       281       284       270       269       273
       270       269       277       270       269       281       270       285       286
       270       285       287       270       285       291       271       270       272
       271       270       285       272       270       285       273       269       277
       273       269       281       274       273       275       274       273       276
       275       273       276       277       269       281       278       277       279
       278       277       280       279       277       280       282       281       283
       282       281       284       283       281       284       285       291       288
       286       285       287       286       285       291       287       285       291
       288       292       293       289       288       290       289       288       291
       289       288       292       290       288       291       290       288       292
       291       288       292       292       293       294       292       293       295
       292       293       296       293       296       297       293       296       298
       293       296       304       294       293       295       294       293       296
       295       293       296       296       298       299       296       304       305
       296       304       306       296       304       307       297       296       298
       297       296       304       298       296       304       298       299       300
       298       299       301       299       301       302       299       301       303
       299       301       313       300       299       301       301       313       314
       301       313       315       301       313       316       302       301       303
       302       301       313       303       301       313       304       307       308
       305       304       306       305       304       307       306       304       307
       307       308       309       307       308       310       308       310       311
       308       310       312       308       310       360       309       308       310
       310       360       361       310       360       362       310       360       363
       311       310       312       311       310       360       312       310       360
       313       316       317       313       316       318       313       316       319
       314       313       315       314       313       316       315       313       316
       316       319       320       316       319       321       316       319       322
       317       316       318       317       316       319       318       316       319
       319       322       323       319       322       324       319       322       325
       320       319       321       320       319       322       321       319       322
       322       325       326       322       325       327       322       325       328
       323       322       324       323       322       325       324       322       325
       325       328       329       325       328       330       325       328       331
       326       325       327       326       325       328       327       325       328
       328       331       332       328       331       333       329       328       330
       329       328       331       330       328       331       331       333       334
       331       333       335       332       331       333       333       335       336
       333       335       337       333       335       338       334       333       335
       335       338       339       335       338       340       335       338       341
       336       335       337       336       335       338       337       335       338
       338       341       342       338       341       343       338       341       344
       339       338       340       339       338       341       340       338       341
       341       344       345       341       344       346       341       344       347
       342       341       343       342       341       344       343       341       344
       344       347       348       344       347       349       344       347       350
       345       344       346       345       344       347       346       344       347
       347       350       351       347       350       352       347       350       353
       348       347       349       348       347       350       349       347       350
       350       353       354       350       353       355       350       353       356
       351       350       352       351       350       353       352       350       353
       353       356       357       353       356       358       353       356       359
       354       353       355       354       353       356       355       353       356
       357       356       358       357       356       359       358       356       359
       360       363       364       360       363       365       360       363       366
       361       360       362       361       360       363       362       360       363
       363       366       367       363       366       368       363       366       369
       364       363       365       364       363       366       365       363       366
       366       369       370       366       369       371       366       369       372
       367       366       368       367       366       369       368       366       369
       369       372       373       369       372       374       369       372       375
       370       369       371       370       369       372       371       369       372
       372       375       376       372       375       377       372       375       378
       373       372       374       373       372       375       374       372       375
       375       378       379       375       378       380       375       378       381
       376       375       377       376       375       378       377       375       378
       378       381       382       378       381       383       378       381       384
       379       378       380       379       378       381       380       378       381
       381       384       385       381       384       386       381       384       387
       382       381       383       382       381       384       383       381       384
       384       387       388       384       387       389       384       387       390
       385       384       386       385       384       387       386       384       387
       387       390       391       387       390       392       387       390       393
       388       387       389       388       387       390       389       387       390
       390       393       394       390       393       395       390       393       396
       391       390       392       391       390       393       392       390       393
       393       396       397       393       396       398       393       396       399
       394       393       395       394       393       396       395       393       396
       396       399       400       396       399       401       396       399       402
       397       396       398       397       396       399       398       396       399
       400       399       401       400       399       402       401       399       402
       403       404       405       403       404       406       403       404       419
       403       407       408       403       407       409       403       407       410
       403       411       412       403       411       413       403       411       414
       403       415       416       403       415       417       403       415       418
       404       403       407       404       403       411       404       403       415
       404       419       420       404       419       421       404       419       425
       405       404       406       405       404       419       406       404       419
       407       403       411       407       403       415       408       407       409
       408       407       410       409       407       410       411       403       415
       412       411       413       412       411       414       413       411       414
       416       415       417       416       415       418       417       415       418
       419       425       422       420       419       421       420       419       425
       421       419       425       422       426       427       423       422       424
       423       422       425       423       422       426       424       422       425
       424       422       426       425       422       426       426       427       428
       426       427       429       426       427       430       427       430       431
       427       430       432       427       430       438       428       427       429
       428       427       430       429       427       430       430       432       433
       430       438       439       430       438       440       430       438       441
       431       430       432       431       430       438       432       430       438
       432       433       434       432       433       435       433       435       436
       433       435       437       433       435       447       434       433       435
       435       447       448       435       447       449       435       447       450
       436       435       437       436       435       447       437       435       447
       438       441       442       439       438       440       439       438       441
       440       438       441       441       442       443       441       442       444
       442       444       445       442       444       446       442       444       494
       443       442       444       444       494       495       444       494       496
       444       494       497       445       444       446       445       444       494
       446       444       494       447       450       451       447       450       452
       447       450       453       448       447       449       448       447       450
       449       447       450       450       453       454       450       453       455
       450       453       456       451       450       452       451       450       453
       452       450       453       453       456       457       453       456       458
       453       456       459       454       453       455       454       453       456
       455       453       456       456       459       460       456       459       461
       456       459       462       457       456       458       457       456       459
       458       456       459       459       462       463       459       462       464
       459       462       465       460       459       461       460       459       462
       461       459       462       462       465       466       462       465       467
       463       462       464       463       462       465       464       462       465
       465       467       468       465       467       469       466       465       467
       467       469       470       467       469       471       467       469       472
       468       467       469       469       472       473       469       472       474
       469       472       475       470       469       471       470       469       472
       471       469       472       472       475       476       472       475       477
       472       475       478       473       472       474       473       472       475
       474       472       475       475       478       479       475       478       480
       475       478       481       476       475       477       476       475       478
       477       475       478       478       481       482       478       481       483
       478       481       484       479       478       480       479       478       481
       480       478       481       481       484       485       481       484       486
       481       484       487       482       481       483       482       481       484
       483       481       484       484       487       488       484       487       489
       484       487       490       485       484       486       485       484       487
       486       484       487       487       490       491       487       490       492
       487       490       493       488       487       489       488       487       490
       489       487       490       491       490       492       491       490       493
       492       490       493       494       497       498       494       497       499
       494       497       500       495       494       496       495       494       497
       496       494       497       497       500       501       497       500       502
       497       500       503       498       497       499       498       497       500
       499       497       500       500       503       504       500       503       505
       500       503       506       501       500       502       501       500       503
       502       500       503       503       506       507       503       506       508
       503       506       509       504       503       505       504       503       506
       505       503       506       506       509       510       506       509       511
       506       509       512       507       506       508       507       506       509
       508       506       509       509       512       513       509       512       514
       509       512       515       510       509       511       510       509       512
       511       509       512       512       515       516       512       515       517
       512       515       518       513       512       514       513       512       515
       514       512       515       515       518       519       515       518       520
       515       518       521       516       515       517       516       515       518
       517       515       518       518       521       522       518       521       523
       518       521       524       519       518       520       519       518       521
       520       518       521       521       524       525       521       524       526
       521       524       527       522       521       523       522       521       524
       523       521       524       524       527       528       524       527       529
       524       527       530       525       524       526       525       524       527
       526       524       527       527       530       531       527       530       532
       527       530       533       528       527       529       528       527       530
       529       527       530       530       533       534       530       533       535
       530       533       536       531       530       532       531       530       533
       532       530       533       534       533       535       534       533       536
       535       533       536       537       538       539       537       538       540
       537       538       553       537       541       542       537       541       543
       537       541       544       537       545       546       537       545       547
       537       545       548       537       549       550       537       549       551
       537       549       552       538       537       541       538       537       545
       538       537       549       538       553       554       538       553       555
       538       553       559       539       538       540       539       538       553
       540       538       553       541       537       545       541       537       549
       542       541       543       542       541       544       543       541       544
       545       537       549       546       545       547       546       545       548
       547       545       548       550       549       551       550       549       552
       551       549       552       553       559       556       554       553       555
       554       553       559       555       553       559       556       560       561
       557       556       558       557       556       559       557       556       560
       558       556       559       558       556       560       559       556       560
       560       561       562       560       561       563       560       561       564
       561       564       565       561       564       566       561       564       572
       562       561       563       562       561       564       563       561       564
       564       566       567       564       572       573       564       572       574
       564       572       575       565       564       566       565       564       572
       566       564       572       566       567       568       566       567       569
       567       569       570       567       569       571       567       569       581
       568       567       569       569       581       582       569       581       583
       569       581       584       570       569       571       570       569       581
       571       569       581       572       575       576       573       572       574
       573       572       575       574       572       575       575       576       577
       575       576       578       576       578       579       576       578       580
       576       578       628       577       576       578       578       628       629
       578       628       630       578       628       631       579       578       580
       579       578       628       580       578       628       581       584       585
       581       584       586       581       584       587       582       581       583
       582       581       584       583       581       584       584       587       588
       584       587       589       584       587       590       585       584       586
       585       584       587       586       584       587       587       590       591
       587       590       592       587       590       593       588       587       589
       588       587       590       589       587       590       590       593       594
       590       593       595       590       593       596       591       590       592
       591       590       593       592       590       593       593       596       597
       593       596       598       593       596       599       594       593       595
       594       593       596       595       593       596       596       599       600
       596       599       601       597       596       598       597       596       599
       598       596       599       599       601       602       599       601       603
       600       599       601       601       603       604       601       603       605
       601       603       606       602       601       603       603       606       607
       603       606       608       603       606       609       604       603       605
       604       603       606       605       603       606       606       609       610
       606       609       611       606       609       612       607       606       608
       607       606       609       608       606       609       609       612       613
       609       612       614       609       612       615       610       609       611
       610       609       612       611       609       612       612       615       616
       612       615       617       612       615       618       613       612       614
       613       612       615       614       612       615       615       618       619
       615       618       620       615       618       621       616       615       617
       616       615       618       617       615       618       618       621       622
       618       621       623       618       621       624       619       618       620
       619       618       621       620       618       621       621       624       625
       621       624       626       621       624       627       622       621       623
       622       621       624       623       621       624       625       624       626
       625       624       627       626       624       627       628       631       632
       628       631       633       628       631       634       629       628       630
       629       628       631       630       628       631       631       634       635
       631       634       636       631       634       637       632       631       633
       632       631       634       633       631       634       634       637       638
       634       637       639       634       637       640       635       634       636
       635       634       637       636       634       637       637       640       641
       637       640       642       637       640       643       638       637       639
       638       637       640       639       637       640       640       643       644
       640       643       645       640       643       646       641       640       642
       641       640       643       642       640       643       643       646       647
       643       646       648       643       646       649       644       643       645
       644       643       646       645       643       646       646       649       650
       646       649       651       646       649       652       647       646       648
       647       646       649       648       646       649       649       652       653
       649       652       654       649       652       655       650       649       651
       650       649       652       651       649       652       652       655       656
       652       655       657       652       655       658       653       652       654
       653       652       655       654       652       655       655       658       659
       655       658       660       655       658       661       656       655       657
       656       655       658       657       655       658       658       661       662
       658       661       663       658       661       664       659       658       660
       659       658       661       660       658       661       661       664       665
       661       664       666       661       664       667       662       661       663
       662       661       664       663       661       664       664       667       668
       664       667       669       664       667       670       665       664       666
       665       664       667       666       664       667       668       667       669
       668       667       670       669       667       670       671       672       673
       671       672       674       671       672       687       671       675       676
       671       675       677       671       675       678       671       679       680
       671       679       681       671       679       682       671       683       684
       671       683       685       671       683       686       672       671       675
       672       671       679       672       671       683       672       687       688
       672       687       689       672       687       693       673       672       674
       673       672       687       674       672       687       675       671       679
       675       671       683       676       675       677       676       675       678
       677       675       678       679       671       683       680       679       681
       680       679       682       681       679       682       684       683       685
       684       683       686       685       683       686       687       693       690
       688       687       689       688       687       693       689       687       693
       690       694       695       691       690       692       691       690       693
       691       690       694       692       690       693       692       690       694
       693       690       694       694       695       696       694       695       697
       694       695       698       695       698       699       695       698       700
       695       698       706       696       695       697       696       695       698
       697       695       698       698       700       701       698       706       707
       698       706       708       698       706       709       699       698       700
       699       698       706       700       698       706       700       701       702
       700       701       703       701       703       704       701       703       705
       701       703       715       702       701       703       703       715       716
       703       715       717       703       715       718       704       703       705
       704       703       715       705       703       715       706       709       710
       707       706       708       707       706       709       708       706       709
       709       710       711       709       710       712       710       712       713
       710       712       714       710       712       762       711       710       712
       712       762       763       712       762       764       712       762       765
       713       712       714       713       712       762       714       712       762
       715       718       719       715       718       720       715       718       721
       716       715       717       716       715       718       717       715       718
       718       721       722       718       721       723       718       721       724
       719       718       720       719       718       721       720       718       721
       721       724       725       721       724       726       721       724       727
       722       721       723       722       721       724       723       721       724
       724       727       728       724       727       729       724       727       730
       725       724       726       725       724       727       726       724       727
       727       730       731       727       730       732       727       730       733
       728       727       729       728       727       730       729       727       730
       730       733       734       730       733       735       731       730       732
       731       730       733       732       730       733       733       735       736
       733       735       737       734       733       735       735       737       738
       735       737       739       735       737       740       736       735       737
       737       740       741       737       740       742       737       740       743
       738       737       739       738       737       740       739       737       740
       740       743       744       740       743       745       740       743       746
       741       740       742       741       740       743       742       740       743
       743       746       747       743       746       748       743       746       749
       744       743       745       744       743       746       745       743       746
       746       749       750       746       749       751       746       749       752
       747       746       748       747       746       749       748       746       749
       749       752       753       749       752       754       749       752       755
       750       749       751       750       749       752       751       749       752
       752       755       756       752       755       757       752       755       758
       753       752       754       753       752       755       754       752       755
       755       758       759       755       758       760       755       758       761
       756       755       757       756       755       758       757       755       758
       759       758       760       759       758       761       760       758       761
       762       765       766       762       765       767       762       765       768
       763       762       764       763       762       765       764       762       765
       765       768       769       765       768       770       765       768       771
       766       765       767       766       765       768       767       765       768
       768       771       772       768       771       773       768       771       774
       769       768       770       769       768       771       770       768       771
       771       774       775       771       774       776       771       774       777
       772       771       773       772       771       774       773       771       774
       774       777       778       774       777       779       774       777       780
       775       774       776       775       774       777       776       774       777
       777       780       781       777       780       782       777       780       783
       778       777       779       778       777       780       779       777       780
       780       783       784       780       783       785       780       783       786
       781       780       782       781       780       783       782       780       783
       783       786       787       783       786       788       783       786       789
       784       783       785       784       783       786       785       783       786
       786       789       790       786       789       791       786       789       792
       787       786       788       787       786       789       788       786       789
       789       792       793       789       792       794       789       792       795
       790       789       791       790       789       792       791       789       792
       792       795       796       792       795       797       792       795       798
       793       792       794       793       792       795       794       792       795
       795       798       799       795       798       800       795       798       801
       796       795       797       796       795       798       797       795       798
       798       801       802       798       801       803       798       801       804
       799       798       800       799       798       801       800       798       801
       802       801       803       802       801       804       803       801       804
       805       806       807       805       806       808       805       806       821
       805       809       810       805       809       811       805       809       812
       805       813       814       805       813       815       805       813       816
       805       817       818       805       817       819       805       817       820
       806       805       809       806       805       813       806       805       817
       806       821       822       806       821       823       806       821       827
       807       806       808       807       806       821       808       806       821
       809       805       813       809       805       817       810       809       811
       810       809       812       811       809       812       813       805       817
       814       813       815       814       813       816       815       813       816
       818       817       819       818       817       820       819       817       820
       821       827       824       822       821       823       822       821       827
       823       821       827       824       828       829       825       824       826
       825       824       827       825       824       828       826       824       827
       826       824       828       827       824       828       828       829       830
       828       829       831       828       829       832       829       832       833
       829       832       834       829       832       840       830       829       831
       830       829       832       831       829       832       832       834       835
       832       840       841       832       840       842       832       840       843
       833       832       834       833       832       840       834       832       840
       834       835       836       834       835       837       835       837       838
       835       837       839       835       837       849       836       835       837
       837       849       850       837       849       851       837       849       852
       838       837       839       838       837       849       839       837       849
       840       843       844       841       840       842       841       840       843
       842       840       843       843       844       845       843       844       846
       844       846       847       844       846       848       844       846       896
       845       844       846       846       896       897       846       896       898
       846       896       899       847       846       848       847       846       896
       848       846       896       849       852       853       849       852       854
       849       852       855       850       849       851       850       849       852
       851       849       852       852       855       856       852       855       857
       852       855       858       853       852       854       853       852       855
       854       852       855       855       858       859       855       858       860
       855       858       861       856       855       857       856       855       858
       857       855       858       858       861       862       858       861       863
       858       861       864       859       858       860       859       858       861
       860       858       861       861       864       865       861       864       866
       861       864       867       862       861       863       862       861       864
       863       861       864       864       867       868       864       867       869
       865       864       866       865       864       867       866       864       867
       867       869       870       867       869       871       868       867       869
       869       871       872       869       871       873       869       871       874
       870       869       871       871       874       875       871       874       876
       871       874       877       872       871       873       872       871       874
       873       871       874       874       877       878       874       877       879
       874       877       880       875       874       876       875       874       877
       876       874       877       877       880       881       877       880       882
       877       880       883       878       877       879       878       877       880
       879       877       880       880       883       884       880       883       885
       880       883       886       881       880       882       881       880       883
       882       880       883       883       886       887       883       886       888
       883       886       889       884       883       885       884       883       886
       885       883       886       886       889       890       886       889       891
       886       889       892       887       886       888       887       886       889
       888       886       889       889       892       893       889       892       894
       889       892       895       890       889       891       890       889       892
       891       889       892       893       892       894       893       892       895
       894       892       895       896       899       900       896       899       901
       896       899       902       897       896       898       897       896       899
       898       896       899       899       902       903       899       902       904
       899       902       905       900       899       901       900       899       902
       901       899       902       902       905       906       902       905       907
       902       905       908       903       902       904       903       902       905
       904       902       905       905       908       909       905       908       910
       905       908       911       906       905       907       906       905       908
       907       905       908       908       911       912       908       911       913
       908       911       914       909       908       910       909       908       911
       910       908       911       911       914       915       911       914       916
       911       914       917       912       911       913       912       911       914
       913       911       914       914       917       918       914       917       919
       914       917       920       915       914       916       915       914       917
       916       914       917       917       920       921       917       920       922
       917       920       923       918       917       919       918       917       920
       919       917       920       920       923       924       920       923       925
       920       923       926       921       920       922       921       920       923
       922       920       923       923       926       927       923       926       928
       923       926       929       924       923       925       924       923       926
       925       923       926       926       929       930       926       929       931
       926       929       932       927       926       928       927       926       929
       928       926       929       929       932       933       929       932       934
       929       932       935       930       929       931       930       929       932
       931       929       932       932       935       936       932       935       937
       932       935       938       933       932       934       933       932       935
       934       932       935       936       935       937       936       935       938
       937       935       938       939       940       941       939       940       942
       939       940       955       939       943       944       939       943       945
       939       943       946       939       947       948       939       947       949
       939       947       950       939       951       952       939       951       953
       939       951       954       940       939       943       940       939       947
       940       939       951       940       955       956       940       955       957
       940       955       961       941       940       942       941       940       955
       942       940       955       943       939       947       943       939       951
       944       943       945       944       943       946       945       943       946
       947       939       951       948       947       949       948       947       950
       949       947       950       952       951       953       952       951       954
       953       951       954       955       961       958       956       955       957
       956       955       961       957       955       961       958       962       963
       959       958       960       959       958       961       959       958       962
       960       958       961       960       958       962       961       958       962
       962       963       964       962       963       965       962       963       966
       963       966       967       963       966       968       963       966       974
       964       963       965       964       963       966       965       963       966
       966       968       969       966       974       975       966       974       976
       966       974       977       967       966       968       967       966       974
       968       966       974       968       969       970       968       969       971
       969       971       972       969       971       973       969       971       983
       970       969       971       971       983       984       971       983       985
       971       983       986       972       971       973       972       971       983
       973       971       983       974       977       978       975       974       976
       975       974       977       976       974       977       977       978       979
       977       978       980       978       980       981       978       980       982
       978       980      1030       979       978       980       980      1030      1031
       980      1030      1032       980      1030      1033       981       980       982
       981       980      1030       982       980      1030       983       986       987
       983       986       988       983       986       989       984       983       985
       984       983       986       985       983       986       986       989       990
       986       989       991       986       989       992       987       986       988
       987       986       989       988       986       989       989       992       993
       989       992       994       989       992       995       990       989       991
       990       989       992       991       989       992       992       995       996
       992       995       997       992       995       998       993       992       994
       993       992       995       994       992       995       995       998       999
       995       998      1000       995       998      1001       996       995       997
       996       995       998       997       995       998       998      1001      1002
       998      1001      1003       999       998      1000       999       998      1001
      1000       998      1001      1001      1003      1004      1001      1003      1005
      1002      1001      1003      1003      1005      1006      1003      1005      1007
      1003      1005      1008      1004      1003      1005      1005      1008      1009
      1005      1008      1010      1005      1008      1011      1006      1005      1007
      1006      1005      1008      1007      1005      1008      1008      1011      1012
      1008      1011      1013      1008      1011      1014      1009      1008      1010
      1009      1008      1011      1010      1008      1011      1011      1014      1015
      1011      1014      1016      1011      1014      1017      1012      1011      1013
      1012      1011      1014      1013      1011      1014      1014      1017      1018
      1014      1017      1019      1014      1017      1020      1015      1014      1016
      1015      1014      1017      1016      1014      1017      1017      1020      1021
      1017      1020      1022      1017      1020      1023      1018      1017      1019
      1018      1017      1020      1019      1017      1020      1020      1023      1024
      1020      1023      1025      1020      1023      1026      1021      1020      1022
      1021      1020      1023      1022      1020      1023      1023      1026      1027
      1023      1026      1028      1023      1026      1029      1024      1023      1025
      1024      1023      1026      1025      1023      1026      1027      1026      1028
      1027      1026      1029      1028      1026      1029      1030      1033      1034
      1030      1033      1035      1030      1033      1036      1031      1030      1032
      1031      1030      1033      1032      1030      1033      1033      1036      1037
      1033      1036      1038      1033      1036      1039      1034      1033      1035
      1034      1033      1036      1035      1033      1036      1036      1039      1040
      1036      1039      1041      1036      1039      1042      1037      1036      1038
      1037      1036      1039      1038      1036      1039      1039      1042      1043
      1039      1042      1044      1039      1042      1045      1040      1039      1041
      1040      1039      1042      1041      1039      1042      1042      1045      1046
      1042      1045      1047      1042      1045      1048      1043      1042      1044
      1043      1042      1045      1044      1042      1045      1045      1048      1049
      1045      1048      1050      1045      1048      1051      1046      1045      1047
      1046      1045      1048      1047      1045      1048      1048      1051      1052
      1048      1051      1053      1048      1051      1054      1049      1048      1050
      1049      1048      1051      1050      1048      1051      1051      1054      1055
      1051      1054      1056      1051      1054      1057      1052      1051      1053
      1052      1051      1054      1053      1051      1054      1054      1057      1058
      1054      1057      1059      1054      1057      1060      1055      1054      1056
      1055      1054      1057      1056      1054      1057      1057      1060      1061
      1057      1060      1062      1057      1060      1063      1058      1057      1059
      1058      1057      1060      1059      1057      1060      1060      1063      1064
      1060      1063      1065      1060      1063      1066      1061      1060      1062
      1061      1060      1063      1062      1060      1063      1063      1066      1067
      1063      1066      1068      1063      1066      1069      1064      1063      1065
      1064      1063      1066      1065      1063      1066      1066      1069      1070
      1066      1069      1071      1066      1069      1072      1067      1066      1068
      1067      1066      1069      1068      1066      1069      1070      1069      1071
      1070      1069      1072      1071      1069      1072      1073      1074      1075
      1073      1074      1076      1073      1074      1089      1073      1077      1078
      1073      1077      1079      1073      1077      1080      1073      1081      1082
      1073      1081      1083      1073      1081      1084      1073      1085      1086
      1073      1085      1087      1073      1085      1088      1074      1073      1077
      1074      1073      1081      1074      1073      1085      1074      1089      1090
      1074      1089      1091      1074      1089      1095      1075      1074      1076
      1075      1074      1089      1076      1074      1089      1077      1073      1081
      1077      1073      1085      1078      1077      1079      1078      1077      1080
      1079      1077      1080      1081      1073      1085      1082      1081      1083
      1082      1081      1084      1083      1081      1084      1086      1085      1087
      1086      1085      1088      1087      1085      1088      1089      1095      1092
      1090      1089      1091      1090      1089      1095      1091      1089      1095
      1092      1096      1097      1093      1092      1094      1093      1092      1095
      1093      1092      1096      1094      1092      1095      1094      1092      1096
      1095      1092      1096      1096      1097      1098      1096      1097      1099
      1096      1097      1100      1097      1100      1101      1097      1100      1102
      1097      1100      1108      1098      1097      1099      1098      1097      1100
      1099      1097      1100      1100      1102      1103      1100      1108      1109
      1100      1108      1110      1100      1108      1111      1101      1100      1102
      1101      1100      1108      1102      1100      1108      1102      1103      1104
      1102      1103      1105      1103      1105      1106      1103      1105      1107
      1103      1105      1117      1104      1103      1105      1105      1117      1118
      1105      1117      1119      1105      1117      1120      1106      1105      1107
      1106      1105      1117      1107      1105      1117      1108      1111      1112
      1109      1108      1110      1109      1108      1111      1110      1108      1111
      1111      1112      1113      1111      1112      1114      1112      1114      1115
      1112      1114      1116      1112      1114      1164      1113      1112      1114
      1114      1164      1165      1114      1164      1166      1114      1164      1167
      1115      1114      1116      1115      1114      1164      1116      1114      1164
      1117      1120      1121      1117      1120      1122      1117      1120      1123
      1118      1117      1119      1118      1117      1120      1119      1117      1120
      1120      1123      1124      1120      1123      1125      1120      1123      1126
      1121      1120      1122      1121      1120      1123      1122      1120      1123
      1123      1126      1127      1123      1126      1128      1123      1126      1129
      1124      1123      1125      1124      1123      1126      1125      1123      1126
      1126      1129      1130      1126      1129      1131      1126      1129      1132
      1127      1126      1128      1127      1126      1129      1128      1126      1129
      1129      1132      1133      1129      1132      1134      1129      1132      1135
      1130      1129      1131      1130      1129      1132      1131      1129      1132
      1132      1135      1136      1132      1135      1137      1133      1132      1134
      1133      1132      1135      1134      1132      1135      1135      1137      1138
      1135      1137      1139      1136      1135      1137      1137      1139      1140
      1137      1139      1141      1137      1139      1142      1138      1137      1139
      1139      1142      1143      1139      1142      1144      1139      1142      1145
      1140      1139      1141      1140      1139      1142      1141      1139      1142
      1142      1145      1146      1142      1145      1147      1142      1145      1148
      1143      1142      1144      1143      1142      1145      1144      1142      1145
      1145      1148      1149      1145      1148      1150      1145      1148      1151
      1146      1145      1147      1146      1145      1148      1147      1145      1148
      1148      1151      1152      1148      1151      1153      1148      1151      1154
      1149      1148      1150      1149      1148      1151      1150      1148      1151
      1151      1154      1155      1151      1154      1156      1151      1154      1157
      1152      1151      1153      1152      1151      1154      1153      1151      1154
      1154      1157      1158      1154      1157      1159      1154      1157      1160
      1155      1154      1156      1155      1154      1157      1156      1154      1157
      1157      1160      1161      1157      1160      1162      1157      1160      1163
      1158      1157      1159      1158      1157      1160      1159      1157      1160
      1161      1160      1162      1161      1160      1163      1162      1160      1163
      1164      1167      1168      1164      1167      1169      1164      1167      1170
      1165      1164      1166      1165      1164      1167      1166      1164      1167
      1167      1170      1171      1167      1170      1172      1167      1170      1173
      1168      1167      1169      1168      1167      1170      1169      1167      1170
      1170      1173      1174      1170      1173      1175      1170      1173      1176
      1171      1170      1172      1171      1170      1173      1172      1170      1173
      1173      1176      1177      1173      1176      1178      1173      1176      1179
      1174      1173      1175      1174      1173      1176      1175      1173      1176
      1176      1179      1180      1176      1179      1181      1176      1179      1182
      1177      1176      1178      1177      1176      1179      1178      1176      1179
      1179      1182      1183      1179      1182      1184      1179      1182      1185
      1180      1179      1181      1180      1179      1182      1181      1179      1182
      1182      1185      1186      1182      1185      1187      1182      1185      1188
      1183      1182      1184      1183      1182      1185      1184      1182      1185
      1185      1188      1189      1185      1188      1190      1185      1188      1191
      1186      1185      1187      1186      1185      1188      1187      1185      1188
      1188      1191      1192      1188      1191      1193      1188      1191      1194
      1189      1188      1190      1189      1188      1191      1190      1188      1191
      1191      1194      1195      1191      1194      1196      1191      1194      1197
      1192      1191      1193      1192      1191      1194      1193      1191      1194
      1194      1197      1198      1194      1197      1199      1194      1197      1200
      1195      1194      1196      1195      1194      1197      1196      1194      1197
      1197      1200      1201      1197      1200      1202      1197      1200      1203
      1198      1197      1199      1198      1197      1200      1199      1197      1200
      1200      1203      1204      1200      1203      1205      1200      1203      1206
      1201      1200      1202      1201      1200      1203      1202      1200      1203
      1204      1203      1205      1204      1203      1206      1205      1203      1206
      1207      1208      1209      1207      1208      1210      1207      1208      1223
      1207      1211      1212      1207      1211      1213      1207      1211      1214
      1207      1215      1216      1207      1215      1217      1207      1215      1218
      1207      1219      1220      1207      1219      1221      1207      1219      1222
      1208      1207      1211      1208      1207      1215      1208      1207      1219
      1208      1223      1224      1208      1223      1225      1208      1223      1229
      1209      1208      1210      1209      1208      1223      1210      1208      1223
      1211      1207      1215      1211      1207      1219      1212      1211      1213
      1212      1211      1214      1213      1211      1214      1215      1207      1219
      1216      1215      1217      1216      1215      1218      1217      1215      1218
      1220      1219      1221      1220      1219      1222      1221      1219      1222
      1223      1229      1226      1224      1223      1225      1224      1223      1229
      1225      1223      1229      1226      1230      1231      1227      1226      1228
      1227      1226      1229      1227      1226      1230      1228      1226      1229
      1228      1226      1230      1229      1226      1230      1230      1231      1232
      1230      1231      1233      1230      1231      1234      1231      1234      1235
      1231      1234      1236      1231      1234      1242      1232      1231      1233
      1232      1231      1234      1233      1231      1234      1234      1236      1237
      1234      1242      1243      1234      1242      1244      1234      1242      1245
      1235      1234      1236      1235      1234      1242      1236      1234      1242
      1236      1237      1238      1236      1237      1239      1237      1239      1240
      1237      1239      1241      1237      1239      1251      1238      1237      1239
      1239      1251      1252      1239      1251      1253      1239      1251      1254
      1240      1239      1241      1240      1239      1251      1241      1239      1251
      1242      1245      1246      1243      1242      1244      1243      1242      1245
      1244      1242      1245      1245      1246      1247      1245      1246      1248
      1246      1248      1249      1246      1248      1250      1246      1248      1298
      1247      1246      1248      1248      1298      1299      1248      1298      1300
      1248      1298      1301      1249      1248      1250      1249      1248      1298
      1250      1248      1298      1251      1254      1255      1251      1254      1256
      1251      1254      1257      1252      1251      1253      1252      1251      1254
      1253      1251      1254      1254      1257      1258      1254      1257      1259
      1254      1257      1260      1255      1254      1256      1255      1254      1257
      1256      1254      1257      1257      1260      1261      1257      1260      1262
      1257      1260      1263      1258      1257      1259      1258      1257      1260
      1259      1257      1260      1260      1263      1264      1260      1263      1265
      1260      1263      1266      1261      1260      1262      1261      1260      1263
      1262      1260      1263      1263      1266      1267      1263      1266      1268
      1263      1266      1269      1264      1263      1265      1264      1263      1266
      1265      1263      1266      1266      1269      1270      1266      1269      1271
      1267      1266      1268      1267      1266      1269      1268      1266      1269
      1269      1271      1272      1269      1271      1273      1270      1269      1271
      1271      1273      1274      1271      1273      1275      1271      1273      1276
      1272      1271      1273      1273      1276      1277      1273      1276      1278
      1273      1276      1279      1274      1273      1275      1274      1273      1276
      1275      1273      1276      1276      1279      1280      1276      1279      1281
      1276      1279      1282      1277      1276      1278      1277      1276      1279
      1278      1276      1279      1279      1282      1283      1279      1282      1284
      1279      1282      1285      1280      1279      1281      1280      1279      1282
      1281      1279      1282      1282      1285      1286      1282      1285      1287
      1282      1285      1288      1283      1282      1284      1283      1282      1285
      1284      1282      1285      1285      1288      1289      1285      1288      1290
      1285      1288      1291      1286      1285      1287      1286      1285      1288
      1287      1285      1288      1288      1291      1292      1288      1291      1293
      1288      1291      1294      1289      1288      1290      1289      1288      1291
      1290      1288      1291      1291      1294      1295      1291      1294      1296
      1291      1294      1297      1292      1291      1293      1292      1291      1294
      1293      1291      1294      1295      1294      1296      1295      1294      1297
      1296      1294      1297      1298      1301      1302      1298      1301      1303
      1298      1301      1304      1299      1298      1300      1299      1298      1301
      1300      1298      1301      1301      1304      1305      1301      1304      1306
      1301      1304      1307      1302      1301      1303      1302      1301      1304
      1303      1301      1304      1304      1307      1308      1304      1307      1309
      1304      1307      1310      1305      1304      1306      1305      1304      1307
      1306      1304      1307      1307      1310      1311      1307      1310      1312
      1307      1310      1313      1308      1307      1309      1308      1307      1310
      1309      1307      1310      1310      1313      1314      1310      1313      1315
      1310      1313      1316      1311      1310      1312      1311      1310      1313
      1312      1310      1313      1313      1316      1317      1313      1316      1318
      1313      1316      1319      1314      1313      1315      1314      1313      1316
      1315      1313      1316      1316      1319      1320      1316      1319      1321
      1316      1319      1322      1317      1316      1318      1317      1316      1319
      1318      1316      1319      1319      1322      1323      1319      1322      1324
      1319      1322      1325      1320      1319      1321      1320      1319      1322
      1321      1319      1322      1322      1325      1326      1322      1325      1327
      1322      1325      1328      1323      1322      1324      1323      1322      1325
      1324      1322      1325      1325      1328      1329      1325      1328      1330
      1325      1328      1331      1326      1325      1327      1326      1325      1328
      1327      1325      1328      1328      1331      1332      1328      1331      1333
      1328      1331      1334      1329      1328      1330      1329      1328      1331
      1330      1328      1331      1331      1334      1335      1331      1334      1336
      1331      1334      1337      1332      1331      1333      1332      1331      1334
      1333      1331      1334      1334      1337      1338      1334      1337      1339
      1334      1337      1340      1335      1334      1336      1335      1334      1337
      1336      1334      1337      1338      1337      1339      1338      1337      1340
      1339      1337      1340      1341      1342      1343      1341      1342      1344
      1341      1342      1357      1341      1345      1346      1341      1345      1347
      1341      1345      1348      1341      1349      1350      1341      1349      1351
      1341      1349      1352      1341      1353      1354      1341      1353      1355
      1341      1353      1356      1342      1341      1345      1342      1341      1349
      1342      1341      1353      1342      1357      1358      1342      1357      1359
      1342      1357      1363      1343      1342      1344      1343      1342      1357
      1344      1342      1357      1345      1341      1349      1345      1341      1353
      1346      1345      1347      1346      1345      1348      1347      1345      1348
      1349      1341      1353      1350      1349      1351      1350      1349      1352
      1351      1349      1352      1354      1353      1355      1354      1353      1356
      1355      1353      1356      1357      1363      1360      1358      1357      1359
      1358      1357      1363      1359      1357      1363      1360      1364      1365
      1361      1360      1362      1361      1360      1363      1361      1360      1364
      1362      1360      1363      1362      1360      1364      1363      1360      1364
      1364      1365      1366      1364      1365      1367      1364      1365      1368
      1365      1368      1369      1365      1368      1370      1365      1368      1376
      1366      1365      1367      1366      1365      1368      1367      1365      1368
      1368      1370      1371      1368      1376      1377      1368      1376      1378
      1368      1376      1379      1369      1368      1370      1369      1368      1376
      1370      1368      1376      1370      1371      1372      1370      1371      1373
      1371      1373      1374      1371      1373      1375      1371      1373      1385
      1372      1371      1373      1373      1385      1386      1373      1385      1387
      1373      1385      1388      1374      1373      1375      1374      1373      1385
      1375      1373      1385      1376      1379      1380      1377      1376      1378
      1377      1376      1379      1378      1376      1379      1379      1380      1381
      1379      1380      1382      1380      1382      1383      1380      1382      1384
      1380      1382      1432      1381      1380      1382      1382      1432      1433
      1382      1432      1434      1382      1432      1435      1383      1382      1384
      1383      1382      1432      1384      1382      1432      1385      1388      1389
      1385      1388      1390      1385      1388      1391      1386      1385      1387
      1386      1385      1388      1387      1385      1388      1388      1391      1392
      1388      1391      1393      1388      1391      1394      1389      1388      1390
      1389      1388      1391      1390      1388      1391      1391      1394      1395
      1391      1394      1396      1391      1394      1397      1392      1391      1393
      1392      1391      1394      1393      1391      1394      1394      1397      1398
      1394      1397      1399      1394      1397      1400      1395      1394      1396
      1395      1394      1397      1396      1394      1397      1397      1400      1401
      1397      1400      1402      1397      1400      1403      1398      1397      1399
      1398      1397      1400      1399      1397      1400      1400      1403      1404
      1400      1403      1405      1401      1400      1402      1401      1400      1403
      1402      1400      1403      1403      1405      1406      1403      1405      1407
      1404      1403      1405      1405      1407      1408      1405      1407      1409
      1405      1407      1410      1406      1405      1407      1407      1410      1411
      1407      1410      1412      1407      1410      1413      1408      1407      1409
      1408      1407      1410      1409      1407      1410      1410      1413      1414
      1410      1413      1415      1410      1413      1416      1411      1410      1412
      1411      1410      1413      1412      1410      1413      1413      1416      1417
      1413      1416      1418      1413      1416      1419      1414      1413      1415
      1414      1413      1416      1415      1413      1416      1416      1419      1420
      1416      1419      1421      1416      1419      1422      1417      1416      1418
      1417      1416      1419      1418      1416      1419      1419      1422      1423
      1419      1422      1424      1419      1422      1425      1420      1419      1421
      1420      1419      1422      1421      1419      1422      1422      1425      1426
      1422      1425      1427      1422      1425      1428      1423      1422      1424
      1423      1422      1425      1424      1422      1425      1425      1428      1429
      1425      1428      1430      1425      1428      1431      1426      1425      1427
      1426      1425      1428      1427      1425      1428      1429      1428      1430
      1429      1428      1431      1430      1428      1431      1432      1435      1436
      1432      1435      1437      1432      1435      1438      1433      1432      1434
      1433      1432      1435      1434      1432      1435      1435      1438      1439
      1435      1438      1440      1435      1438      1441      1436      1435      1437
      1436      1435      1438      1437      1435      1438      1438      1441      1442
      1438      1441      1443      1438      1441      1444      1439      1438      1440
      1439      1438      1441      1440      1438      1441      1441      1444      1445
      1441      1444      1446      1441      1444      1447      1442      1441      1443
      1442      1441      1444      1443      1441      1444      1444      1447      1448
      1444      1447      1449      1444      1447      1450      1445      1444      1446
      1445      1444      1447      1446      1444      1447      1447      1450      1451
      1447      1450      1452      1447      1450      1453      1448      1447      1449
      1448      1447      1450      1449      1447      1450      1450      1453      1454
      1450      1453      1455      1450      1453      1456      1451      1450      1452
      1451      1450      1453      1452      1450      1453      1453      1456      1457
      1453      1456      1458      1453      1456      1459      1454      1453      1455
      1454      1453      1456      1455      1453      1456      1456      1459      1460
      1456      1459      1461      1456      1459      1462      1457      1456      1458
      1457      1456      1459      1458      1456      1459      1459      1462      1463
      1459      1462      1464      1459      1462      1465      1460      1459      1461
      1460      1459      1462      1461      1459      1462      1462      1465      1466
      1462      1465      1467      1462      1465      1468      1463      1462      1464
      1463      1462      1465      1464      1462      1465      1465      1468      1469
      1465      1468      1470      1465      1468      1471      1466      1465      1467
      1466      1465      1468      1467      1465      1468      1468      1471      1472
      1468      1471      1473      1468      1471      1474      1469      1468      1470
      1469      1468      1471      1470      1468      1471      1472      1471      1473
      1472      1471      1474      1473      1471      1474      1475      1476      1477
      1475      1476      1478      1475      1476      1491      1475      1479      1480
      1475      1479      1481      1475      1479      1482      1475      1483      1484
      1475      1483      1485      1475      1483      1486      1475      1487      1488
      1475      1487      1489      1475      1487      1490      1476      1475      1479
      1476      1475      1483      1476      1475      1487      1476      1491      1492
      1476      1491      1493      1476      1491      1497      1477      1476      1478
      1477      1476      1491      1478      1476      1491      1479      1475      1483
      1479      1475      1487      1480      1479      1481      1480      1479      1482
      1481      1479      1482      1483      1475      1487      1484      1483      1485
      1484      1483      1486      1485      1483      1486      1488      1487      1489
      1488      1487      1490      1489      1487      1490      1491      1497      1494
      1492      1491      1493      1492      1491      1497      1493      1491      1497
      1494      1498      1499      1495      1494      1496      1495      1494      1497
      1495      1494      1498      1496      1494      1497      1496      1494      1498
      1497      1494      1498      1498      1499      1500      1498      1499      1501
      1498      1499      1502      1499      1502      1503      1499      1502      1504
      1499      1502      1510      1500      1499      1501      1500      1499      1502
      1501      1499      1502      1502      1504      1505      1502      1510      1511
      1502      1510      1512      1502      1510      1513      1503      1502      1504
      1503      1502      1510      1504      1502      1510      1504      1505      1506
      1504      1505      1507      1505      1507      1508      1505      1507      1509
      1505      1507      1519      1506      1505      1507      1507      1519      1520
      1507      1519      1521      1507      1519      1522      1508      1507      1509
      1508      1507      1519      1509      1507      1519      1510      1513      1514
      1511      1510      1512      1511      1510      1513      1512      1510      1513
      1513      1514      1515      1513      1514      1516      1514      1516      1517
      1514      1516      1518      1514      1516      1566      1515      1514      1516
      1516      1566      1567      1516      1566      1568      1516      1566      1569
      1517      1516      1518      1517      1516      1566      1518      1516      1566
      1519      1522      1523      1519      1522      1524      1519      1522      1525
      1520      1519      1521      1520      1519      1522      1521      1519      1522
      1522      1525      1526      1522      1525      1527      1522      1525      1528
      1523      1522      1524      1523      1522      1525      1524      1522      1525
      1525      1528      1529      1525      1528      1530      1525      1528      1531
      1526      1525      1527      1526      1525      1528      1527      1525      1528
      1528      1531      1532      1528      1531      1533      1528      1531      1534
      1529      1528      1530      1529      1528      1531      1530      1528      1531
      1531      1534      1535      1531      1534      1536      1531      1534      1537
      1532      1531      1533      1532      1531      1534      1533      1531      1534
      1534      1537      1538      1534      1537      1539      1535      1534      1536
      1535      1534      1537      1536      1534      1537      1537      1539      1540
      1537      1539      1541      1538      1537      1539      1539      1541      1542
      1539      1541      1543      1539      1541      1544      1540      1539      1541
      1541      1544      1545      1541      1544      1546      1541      1544      1547
      1542      1541      1543      1542      1541      1544      1543      1541      1544
      1544      1547      1548      1544      1547      1549      1544      1547      1550
      1545      1544      1546      1545      1544      1547      1546      1544      1547
      1547      1550      1551      1547      1550      1552      1547      1550      1553
      1548      1547      1549      1548      1547      1550      1549      1547      1550
      1550      1553      1554      1550      1553      1555      1550      1553      1556
      1551      1550      1552      1551      1550      1553      1552      1550      1553
      1553      1556      1557      1553      1556      1558      1553      1556      1559
      1554      1553      1555      1554      1553      1556      1555      1553      1556
      1556      1559      1560      1556      1559      1561      1556      1559      1562
      1557      1556      1558      1557      1556      1559      1558      1556      1559
      1559      1562      1563      1559      1562      1564      1559      1562      1565
      1560      1559      1561      1560      1559      1562      1561      1559      1562
      1563      1562      1564      1563      1562      1565      1564      1562      1565
      1566      1569      1570      1566      1569      1571      1566      1569      1572
      1567      1566      1568      1567      1566      1569      1568      1566      1569
      1569      1572      1573      1569      1572      1574      1569      1572      1575
      1570      1569      1571      1570      1569      1572      1571      1569      1572
      1572      1575      1576      1572      1575      1577      1572      1575      1578
      1573      1572      1574      1573      1572      1575      1574      1572      1575
      1575      1578      1579      1575      1578      1580      1575      1578      1581
      1576      1575      1577      1576      1575      1578      1577      1575      1578
      1578      1581      1582      1578      1581      1583      1578      1581      1584
      1579      1578      1580      1579      1578      1581      1580      1578      1581
      1581      1584      1585      1581      1584      1586      1581      1584      1587
      1582      1581      1583      1582      1581      1584      1583      1581      1584
      1584      1587      1588      1584      1587      1589      1584      1587      1590
      1585      1584      1586      1585      1584      1587      1586      1584      1587
      1587      1590      1591      1587      1590      1592      1587      1590      1593
      1588      1587      1589      1588      1587      1590      1589      1587      1590
      1590      1593      1594      1590      1593      1595      1590      1593      1596
      1591      1590      1592      1591      1590      1593      1592      1590      1593
      1593      1596      1597      1593      1596      1598      1593      1596      1599
      1594      1593      1595      1594      1593      1596      1595      1593      1596
      1596      1599      1600      1596      1599      1601      1596      1599      1602
      1597      1596      1598      1597      1596      1599      1598      1596      1599
      1599      1602      1603      1599      1602      1604      1599      1602      1605
      1600      1599      1601      1600      1599      1602      1601      1599      1602
      1602      1605      1606      1602      1605      1607      1602      1605      1608
      1603      1602      1604      1603      1602      1605      1604      1602      1605
      1606      1605      1607      1606      1605      1608      1607      1605      1608
      1609      1610      1611      1609      1610      1612      1609      1610      1625
      1609      1613      1614      1609      1613      1615      1609      1613      1616
      1609      1617      1618      1609      1617      1619      1609      1617      1620
      1609      1621      1622      1609      1621      1623      1609      1621      1624
      1610      1609      1613      1610      1609      1617      1610      1609      1621
      1610      1625      1626      1610      1625      1627      1610      1625      1631
      1611      1610      1612      1611      1610      1625      1612      1610      1625
      1613      1609      1617      1613      1609      1621      1614      1613      1615
      1614      1613      1616      1615      1613      1616      1617      1609      1621
      1618      1617      1619      1618      1617      1620      1619      1617      1620
      1622      1621      1623      1622      1621      1624      1623      1621      1624
      1625      1631      1628      1626      1625      1627      1626      1625      1631
      1627      1625      1631      1628      1632      1633      1629      1628      1630
      1629      1628      1631      1629      1628      1632      1630      1628      1631
      1630      1628      1632      1631      1628      1632      1632      1633      1634
      1632      1633      1635      1632      1633      1636      1633      1636      1637
      1633      1636      1638      1633      1636      1644      1634      1633      1635
      1634      1633      1636      1635      1633      1636      1636      1638      1639
      1636      1644      1645      1636      1644      1646      1636      1644      1647
      1637      1636      1638      1637      1636      1644      1638      1636      1644
      1638      1639      1640      1638      1639      1641      1639      1641      1642
      1639      1641      1643      1639      1641      1653      1640      1639      1641
      1641      1653      1654      1641      1653      1655      1641      1653      1656
      1642      1641      1643      1642      1641      1653      1643      1641      1653
      1644      1647      1648      1645      1644      1646      1645      1644      1647
      1646      1644      1647      1647      1648      1649      1647      1648      1650
      1648      1650      1651      1648      1650      1652      1648      1650      1700
      1649      1648      1650      1650      1700      1701      1650      1700      1702
      1650      1700      1703      1651      1650      1652      1651      1650      1700
      1652      1650      1700      1653      1656      1657      1653      1656      1658
      1653      1656      1659      1654      1653      1655      1654      1653      1656
      1655      1653      1656      1656      1659      1660      1656      1659      1661
      1656      1659      1662      1657      1656      1658      1657      1656      1659
      1658      1656      1659      1659      1662      1663      1659      1662      1664
      1659      1662      1665      1660      1659      1661      1660      1659      1662
      1661      1659      1662      1662      1665      1666      1662      1665      1667
      1662      1665      1668      1663      1662      1664      1663      1662      1665
      1664      1662      1665      1665      1668      1669      1665      1668      1670
      1665      1668      1671      1666      1665      1667      1666      1665      1668
      1667      1665      1668      1668      1671      1672      1668      1671      1673
      1669      1668      1670      1669      1668      1671      1670      1668      1671
      1671      1673      1674      1671      1673      1675      1672      1671      1673
      1673      1675      1676      1673      1675      1677      1673      1675      1678
      1674      1673      1675      1675      1678      1679      1675      1678      1680
      1675      1678      1681      1676      1675      1677      1676      1675      1678
      1677      1675      1678      1678      1681      1682      1678      1681      1683
      1678      1681      1684      1679      1678      1680      1679      1678      1681
      1680      1678      1681      1681      1684      1685      1681      1684      1686
      1681      1684      1687      1682      1681      1683      1682      1681      1684
      1683      1681      1684      1684      1687      1688      1684      1687      1689
      1684      1687      1690      1685      1684      1686      1685      1684      1687
      1686      1684      1687      1687      1690      1691      1687      1690      1692
      1687      1690      1693      1688      1687      1689      1688      1687      1690
      1689      1687      1690      1690      1693      1694      1690      1693      1695
      1690      1693      1696      1691      1690      1692      1691      1690      1693
      1692      1690      1693      1693      1696      1697      1693      1696      1698
      1693      1696      1699      1694      1693      1695      1694      1693      1696
      1695      1693      1696      1697      1696      1698      1697      1696      1699
      1698      1696      1699      1700      1703      1704      1700      1703      1705
      1700      1703      1706      1701      1700      1702      1701      1700      1703
      1702      1700      1703      1703      1706      1707      1703      1706      1708
      1703      1706      1709      1704      1703      1705      1704      1703      1706
      1705      1703      1706      1706      1709      1710      1706      1709      1711
      1706      1709      1712      1707      1706      1708      1707      1706      1709
      1708      1706      1709      1709      1712      1713      1709      1712      1714
      1709      1712      1715      1710      1709      1711      1710      1709      1712
      1711      1709      1712      1712      1715      1716      1712      1715      1717
      1712      1715      1718      1713      1712      1714      1713      1712      1715
      1714      1712      1715      1715      1718      1719      1715      1718      1720
      1715      1718      1721      1716      1715      1717      1716      1715      1718
      1717      1715      1718      1718      1721      1722      1718      1721      1723
      1718      1721      1724      1719      1718      1720      1719      1718      1721
      1720      1718      1721      1721      1724      1725      1721      1724      1726
      1721      1724      1727      1722      1721      1723      1722      1721      1724
      1723      1721      1724      1724      1727      1728      1724      1727      1729
      1724      1727      1730      1725      1724      1726      1725      1724      1727
      1726      1724      1727      1727      1730      1731      1727      1730      1732
      1727      1730      1733      1728      1727      1729      1728      1727      1730
      1729      1727      1730      1730      1733      1734      1730      1733      1735
      1730      1733      1736      1731      1730      1732      1731      1730      1733
      1732      1730      1733      1733      1736      1737      1733      1736      1738
      1733      1736      1739      1734      1733      1735      1734      1733      1736
      1735      1733      1736      1736      1739      1740      1736      1739      1741
      1736      1739      1742      1737      1736      1738      1737      1736      1739
      1738      1736      1739      1740      1739      1741      1740      1739      1742
      1741      1739      1742      1743      1744      1745      1743      1744      1746
      1743      1744      1759      1743      1747      1748      1743      1747      1749
      1743      1747      1750      1743      1751      1752      1743      1751      1753
      1743      1751      1754      1743      1755      1756      1743      1755      1757
      1743      1755      1758      1744      1743      1747      1744      1743      1751
      1744      1743      1755      1744      1759      1760      1744      1759      1761
      1744      1759      1765      1745      1744      1746      1745      1744      1759
      1746      1744      1759      1747      1743      1751      1747      1743      1755
      1748      1747      1749      1748      1747      1750      1749      1747      1750
      1751      1743      1755      1752      1751      1753      1752      1751      1754
      1753      1751      1754      1756      1755      1757      1756      1755      1758
      1757      1755      1758      1759      1765      1762      1760      1759      1761
      1760      1759      1765      1761      1759      1765      1762      1766      1767
      1763      1762      1764      1763      1762      1765      1763      1762      1766
      1764      1762      1765      1764      1762      1766      1765      1762      1766
      1766      1767      1768      1766      1767      1769      1766      1767      1770
      1767      1770      1771      1767      1770      1772      1767      1770      1778
      1768      1767      1769      1768      1767      1770      1769      1767      1770
      1770      1772      1773      1770      1778      1779      1770      1778      1780
      1770      1778      1781      1771      1770      1772      1771      1770      1778
      1772      1770      1778      1772      1773      1774      1772      1773      1775
      1773      1775      1776      1773      1775      1777      1773      1775      1787
      1774      1773      1775      1775      1787      1788      1775      1787      1789
      1775      1787      1790      1776      1775      1777      1776      1775      1787
      1777      1775      1787      1778      1781      1782      1779      1778      1780
      1779      1778      1781      1780      1778      1781      1781      1782      1783
      1781      1782      1784      1782      1784      1785      1782      1784      1786
      1782      1784      1834      1783      1782      1784      1784      1834      1835
      1784      1834      1836      1784      1834      1837      1785      1784      1786
      1785      1784      1834      1786      1784      1834      1787      1790      1791
      1787      1790      1792      1787      1790      1793      1788      1787      1789
      1788      1787      1790      1789      1787      1790      1790      1793      1794
      1790      1793      1795      1790      1793      1796      1791      1790      1792
      1791      1790      1793      1792      1790      1793      1793      1796      1797
      1793      1796      1798      1793      1796      1799      1794      1793      1795
      1794      1793      1796      1795      1793      1796      1796      1799      1800
      1796      1799      1801      1796      1799      1802      1797      1796      1798
      1797      1796      1799      1798      1796      1799      1799      1802      1803
      1799      1802      1804      1799      1802      1805      1800      1799      1801
      1800      1799      1802      1801      1799      1802      1802      1805      1806
      1802      1805      1807      1803      1802      1804      1803      1802      1805
      1804      1802      1805      1805      1807      1808      1805      1807      1809
      1806      1805      1807      1807      1809      1810      1807      1809      1811
      1807      1809      1812      1808      1807      1809      1809      1812      1813
      1809      1812      1814      1809      1812      1815      1810      1809      1811
      1810      1809      1812      1811      1809      1812      1812      1815      1816
      1812      1815      1817      1812      1815      1818      1813      1812      1814
      1813      1812      1815      1814      1812      1815      1815      1818      1819
      1815      1818      1820      1815      1818      1821      1816      1815      1817
      1816      1815      1818      1817      1815      1818      1818      1821      1822
      1818      1821      1823      1818      1821      1824      1819      1818      1820
      1819      1818      1821      1820      1818      1821      1821      1824      1825
      1821      1824      1826      1821      1824      1827      1822      1821      1823
      1822      1821      1824      1823      1821      1824      1824      1827      1828
      1824      1827      1829      1824      1827      1830      1825      1824      1826
      1825      1824      1827      1826      1824      1827      1827      1830      1831
      1827      1830      1832      1827      1830      1833      1828      1827      1829
      1828      1827      1830      1829      1827      1830      1831      1830      1832
      1831      1830      1833      1832      1830      1833      1834      1837      1838
      1834      1837      1839      1834      1837      1840      1835      1834      1836
      1835      1834      1837      1836      1834      1837      1837      1840      1841
      1837      1840      1842      1837      1840      1843      1838      1837      1839
      1838      1837      1840      1839      1837      1840      1840      1843      1844
      1840      1843      1845      1840      1843      1846      1841      1840      1842
      1841      1840      1843      1842      1840      1843      1843      1846      1847
      1843      1846      1848      1843      1846      1849      1844      1843      1845
      1844      1843      1846      1845      1843      1846      1846      1849      1850
      1846      1849      1851      1846      1849      1852      1847      1846      1848
      1847      1846      1849      1848      1846      1849      1849      1852      1853
      1849      1852      1854      1849      1852      1855      1850      1849      1851
      1850      1849      1852      1851      1849      1852      1852      1855      1856
      1852      1855      1857      1852      1855      1858      1853      1852      1854
      1853      1852      1855      1854      1852      1855      1855      1858      1859
      1855      1858      1860      1855      1858      1861      1856      1855      1857
      1856      1855      1858      1857      1855      1858      1858      1861      1862
      1858      1861      1863      1858      1861      1864      1859      1858      1860
      1859      1858      1861      1860      1858      1861      1861      1864      1865
      1861      1864      1866      1861      1864      1867      1862      1861      1863
      1862      1861      1864      1863      1861      1864      1864      1867      1868
      1864      1867      1869      1864      1867      1870      1865      1864      1866
      1865      1864      1867      1866      1864      1867      1867      1870      1871
      1867      1870      1872      1867      1870      1873      1868      1867      1869
      1868      1867      1870      1869      1867      1870      1870      1873      1874
      1870      1873      1875      1870      1873      1876      1871      1870      1872
      1871      1870      1873      1872      1870      1873      1874      1873      1875
      1874      1873      1876      1875      1873      1876      1877      1878      1879
      1877      1878      1880      1877      1878      1893      1877      1881      1882
      1877      1881      1883      1877      1881      1884      1877      1885      1886
      1877      1885      1887      1877      1885      1888      1877      1889      1890
      1877      1889      1891      1877      1889      1892      1878      1877      1881
      1878      1877      1885      1878      1877      1889      1878      1893      1894
      1878      1893      1895      1878      1893      1899      1879      1878      1880
      1879      1878      1893      1880      1878      1893      1881      1877      1885
      1881      1877      1889      1882      1881      1883      1882      1881      1884
      1883      1881      1884      1885      1877      1889      1886      1885      1887
      1886      1885      1888      1887      1885      1888      1890      1889      1891
      1890      1889      1892      1891      1889      1892      1893      1899      1896
      1894      1893      1895      1894      1893      1899      1895      1893      1899
      1896      1900      1901      1897      1896      1898      1897      1896      1899
      1897      1896      1900      1898      1896      1899      1898      1896      1900
      1899      1896      1900      1900      1901      1902      1900      1901      1903
      1900      1901      1904      1901      1904      1905      1901      1904      1906
      1901      1904      1912      1902      1901      1903      1902      1901      1904
      1903      1901      1904      1904      1906      1907      1904      1912      1913
      1904      1912      1914      1904      1912      1915      1905      1904      1906
      1905      1904      1912      1906      1904      1912      1906      1907      1908
      1906      1907      1909      1907      1909      1910      1907      1909      1911
      1907      1909      1921      1908      1907      1909      1909      1921      1922
      1909      1921      1923      1909      1921      1924      1910      1909      1911
      1910      1909      1921      1911      1909      1921      1912      1915      1916
      1913      1912      1914      1913      1912      1915      1914      1912      1915
      1915      1916      1917      1915      1916      1918      1916      1918      1919
      1916      1918      1920      1916      1918      1968      1917      1916      1918
      1918      1968      1969      1918      1968      1970      1918      1968      1971
      1919      1918      1920      1919      1918      1968      1920      1918      1968
      1921      1924      1925      1921      1924      1926      1921      1924      1927
      1922      1921      1923      1922      1921      1924      1923      1921      1924
      1924      1927      1928      1924      1927      1929      1924      1927      1930
      1925      1924      1926      1925      1924      1927      1926      1924      1927
      1927      1930      1931      1927      1930      1932      1927      1930      1933
      1928      1927      1929      1928      1927      1930      1929      1927      1930
      1930      1933      1934      1930      1933      1935      1930      1933      1936
      1931      1930      1932      1931      1930      1933      1932      1930      1933
      1933      1936      1937      1933      1936      1938      1933      1936      1939
      1934      1933      1935      1934      1933      1936      1935      1933      1936
      1936      1939      1940      1936      1939      1941      1937      1936      1938
      1937      1936      1939      1938      1936      1939      1939      1941      1942
      1939      1941      1943      1940      1939      1941      1941      1943      1944
      1941      1943      1945      1941      1943      1946      1942      1941      1943
      1943      1946      1947      1943      1946      1948      1943      1946      1949
      1944      1943      1945      1944      1943      1946      1945      1943      1946
      1946      1949      1950      1946      1949      1951      1946      1949      1952
      1947      1946      1948      1947      1946      1949      1948      1946      1949
      1949      1952      1953      1949      1952      1954      1949      1952      1955
      1950      1949      1951      1950      1949      1952      1951      1949      1952
      1952      1955      1956      1952      1955      1957      1952      1955      1958
      1953      1952      1954      1953      1952      1955      1954      1952      1955
      1955      1958      1959      1955      1958      1960      1955      1958      1961
      1956      1955      1957      1956      1955      1958      1957      1955      1958
      1958      1961      1962      1958      1961      1963      1958      1961      1964
      1959      1958      1960      1959      1958      1961      1960      1958      1961
      1961      1964      1965      1961      1964      1966      1961      1964      1967
      1962      1961      1963      1962      1961      1964      1963      1961      1964
      1965      1964      1966      1965      1964      1967      1966      1964      1967
      1968      1971      1972      1968      1971      1973      1968      1971      1974
      1969      1968      1970      1969      1968      1971      1970      1968      1971
      1971      1974      1975      1971      1974      1976      1971      1974      1977
      1972      1971      1973      1972      1971      1974      1973      1971      1974
      1974      1977      1978      1974      1977      1979      1974      1977      1980
      1975      1974      1976      1975      1974      1977      1976      1974      1977
      1977      1980      1981      1977      1980      1982      1977      1980      1983
      1978      1977      1979      1978      1977      1980      1979      1977      1980
      1980      1983      1984      1980      1983      1985      1980      1983      1986
      1981      1980      1982      1981      1980      1983      1982      1980      1983
      1983      1986      1987      1983      1986      1988      1983      1986      1989
      1984      1983      1985      1984      1983      1986      1985      1983      1986
      1986      1989      1990      1986      1989      1991      1986      1989      1992
      1987      1986      1988      1987      1986      1989      1988      1986      1989
      1989      1992      1993      1989      1992      1994      1989      1992      1995
      1990      1989      1991      1990      1989      1992      1991      1989      1992
      1992      1995      1996      1992      1995      1997      1992      1995      1998
      1993      1992      1994      1993      1992      1995      1994      1992      1995
      1995      1998      1999      1995      1998      2000      1995      1998      2001
      1996      1995      1997      1996      1995      1998      1997      1995      1998
      1998      2001      2002      1998      2001      2003      1998      2001      2004
      1999      1998      2000      1999      1998      2001      2000      1998      2001
      2001      2004      2005      2001      2004      2006      2001      2004      2007
      2002      2001      2003      2002      2001      2004      2003      2001      2004
      2004      2007      2008      2004      2007      2009      2004      2007      2010
      2005      2004      2006      2005      2004      2007      2006      2004      2007
      2008      2007      2009      2008      2007      2010      2009      2007      2010
      2011      2012      2013      2011      2012      2014      2011      2012      2027
      2011      2015      2016      2011      2015      2017      2011      2015      2018
      2011      2019      2020      2011      2019      2021      2011      2019      2022
      2011      2023      2024      2011      2023      2025      2011      2023      2026
      2012      2011      2015      2012      2011      2019      2012      2011      2023
      2012      2027      2028      2012      2027      2029      2012      2027      2033
      2013      2012      2014      2013      2012      2027      2014      2012      2027
      2015      2011      2019      2015      2011      2023      2016      2015      2017
      2016      2015      2018      2017      2015      2018      2019      2011      2023
      2020      2019      2021      2020      2019      2022      2021      2019      2022
      2024      2023      2025      2024      2023      2026      2025      2023      2026
      2027      2033      2030      2028      2027      2029      2028      2027      2033
      2029      2027      2033      2030      2034      2035      2031      2030      2032
      2031      2030      2033      2031      2030      2034      2032      2030      2033
      2032      2030      2034      2033      2030      2034      2034      2035      2036
      2034      2035      2037      2034      2035      2038      2035      2038      2039
      2035      2038      2040      2035      2038      2046      2036      2035      2037
      2036      2035      2038      2037      2035      2038      2038      2040      2041
      2038      2046      2047      2038      2046      2048      2038      2046      2049
      2039      2038      2040      2039      2038      2046      2040      2038      2046
      2040      2041      2042      2040      2041      2043      2041      2043      2044
      2041      2043      2045      2041      2043      2055      2042      2041      2043
      2043      2055      2056      2043      2055      2057      2043      2055      2058
      2044      2043      2045      2044      2043      2055      2045      2043      2055
      2046      2049      2050      2047      2046      2048      2047      2046      2049
      2048      2046      2049      2049      2050      2051      2049      2050      2052
      2050      2052      2053      2050      2052      2054      2050      2052      2102
      2051      2050      2052      2052      2102      2103      2052      2102      2104
      2052      2102      2105      2053      2052      2054      2053      2052      2102
      2054      2052      2102      2055      2058      2059      2055      2058      2060
      2055      2058      2061      2056      2055      2057      2056      2055      2058
      2057      2055      2058      2058      2061      2062      2058      2061      2063
      2058      2061      2064      2059      2058      2060      2059      2058      2061
      2060      2058      2061      2061      2064      2065      2061      2064      2066
      2061      2064      2067      2062      2061      2063      2062      2061      2064
      2063      2061      2064      2064      2067      2068      2064      2067      2069
      2064      2067      2070      2065      2064      2066      2065      2064      2067
      2066      2064      2067      2067      2070      2071      2067      2070      2072
      2067      2070      2073      2068      2067      2069      2068      2067      2070
      2069      2067      2070      2070      2073      2074      2070      2073      2075
      2071      2070      2072      2071      2070      2073      2072      2070      2073
      2073      2075      2076      2073      2075      2077      2074      2073      2075
      2075      2077      2078      2075      2077      2079      2075      2077      2080
      2076      2075      2077      2077      2080      2081      2077      2080      2082
      2077      2080      2083      2078      2077      2079      2078      2077      2080
      2079      2077      2080      2080      2083      2084      2080      2083      2085
      2080      2083      2086      2081      2080      2082      2081      2080      2083
      2082      2080      2083      2083      2086      2087      2083      2086      2088
      2083      2086      2089      2084      2083      2085      2084      2083      2086
      2085      2083      2086      2086      2089      2090      2086      2089      2091
      2086      2089      2092      2087      2086      2088      2087      2086      2089
      2088      2086      2089      2089      2092      2093      2089      2092      2094
      2089      2092      2095      2090      2089      2091      2090      2089      2092
      2091      2089      2092      2092      2095      2096      2092      2095      2097
      2092      2095      2098      2093      2092      2094      2093      2092      2095
      2094      2092      2095      2095      2098      2099      2095      2098      2100
      2095      2098      2101      2096      2095      2097      2096      2095      2098
      2097      2095      2098      2099      2098      2100      2099      2098      2101
      2100      2098      2101      2102      2105      2106      2102      2105      2107
      2102      2105      2108      2103      2102      2104      2103      2102      2105
      2104      2102      2105      2105      2108      2109      2105      2108      2110
      2105      2108      2111      2106      2105      2107      2106      2105      2108
      2107      2105      2108      2108      2111      2112      2108      2111      2113
      2108      2111      2114      2109      2108      2110      2109      2108      2111
      2110      2108      2111      2111      2114      2115      2111      2114      2116
      2111      2114      2117      2112      2111      2113      2112      2111      2114
      2113      2111      2114      2114      2117      2118      2114      2117      2119
      2114      2117      2120      2115      2114      2116      2115      2114      2117
      2116      2114      2117      2117      2120      2121      2117      2120      2122
      2117      2120      2123      2118      2117      2119      2118      2117      2120
      2119      2117      2120      2120      2123      2124      2120      2123      2125
      2120      2123      2126      2121      2120      2122      2121      2120      2123
      2122      2120      2123      2123      2126      2127      2123      2126      2128
      2123      2126      2129      2124      2123      2125      2124      2123      2126
      2125      2123      2126      2126      2129      2130      2126      2129      2131
      2126      2129      2132      2127      2126      2128      2127      2126      2129
      2128      2126      2129      2129      2132      2133      2129      2132      2134
      2129      2132      2135      2130      2129      2131      2130      2129      2132
      2131      2129      2132      2132      2135      2136      2132      2135      2137
      2132      2135      2138      2133      2132      2134      2133      2132      2135
      2134      2132      2135      2135      2138      2139      2135      2138      2140
      2135      2138      2141      2136      2135      2137      2136      2135      2138
      2137      2135      2138      2138      2141      2142      2138      2141      2143
      2138      2141      2144      2139      2138      2140      2139      2138      2141
      2140      2138      2141      2142      2141      2143      2142      2141      2144
      2143      2141      2144      2145      2146      2147      2145      2146      2148
      2145      2146      2161      2145      2149      2150      2145      2149      2151
      2145      2149      2152      2145      2153      2154      2145      2153      2155
      2145      2153      2156      2145      2157      2158      2145      2157      2159
      2145      2157      2160      2146      2145      2149      2146      2145      2153
      2146      2145      2157      2146      2161      2162      2146      2161      2163
      2146      2161      2167      2147      2146      2148      2147      2146      2161
      2148      2146      2161      2149      2145      2153      2149      2145      2157
      2150      2149      2151      2150      2149      2152      2151      2149      2152
      2153      2145      2157      2154      2153      2155      2154      2153      2156
      2155      2153      2156      2158      2157      2159      2158      2157      2160
      2159      2157      2160      2161      2167      2164      2162      2161      2163
      2162      2161      2167      2163      2161      2167      2164      2168      2169
      2165      2164      2166      2165      2164      2167      2165      2164      2168
      2166      2164      2167      2166      2164      2168      2167      2164      2168
      2168      2169      2170      2168      2169      2171      2168      2169      2172
      2169      2172      2173      2169      2172      2174      2169      2172      2180
      2170      2169      2171      2170      2169      2172      2171      2169      2172
      2172      2174      2175      2172      2180      2181      2172      2180      2182
      2172      2180      2183      2173      2172      2174      2173      2172      2180
      2174      2172      2180      2174      2175      2176      2174      2175      2177
      2175      2177      2178      2175      2177      2179      2175      2177      2189
      2176      2175      2177      2177      2189      2190      2177      2189      2191
      2177      2189      2192      2178      2177      2179      2178      2177      2189
      2179      2177      2189      2180      2183      2184      2181      2180      2182
      2181      2180      2183      2182      2180      2183      2183      2184      2185
      2183      2184      2186      2184      2186      2187      2184      2186      2188
      2184      2186      2236      2185      2184      2186      2186      2236      2237
      2186      2236      2238      2186      2236      2239      2187      2186      2188
      2187      2186      2236      2188      2186      2236      2189      2192      2193
      2189      2192      2194      2189      2192      2195      2190      2189      2191
      2190      2189      2192      2191      2189      2192      2192      2195      2196
      2192      2195      2197      2192      2195      2198      2193      2192      2194
      2193      2192      2195      2194      2192      2195      2195      2198      2199
      2195      2198      2200      2195      2198      2201      2196      2195      2197
      2196      2195      2198      2197      2195      2198      2198      2201      2202
      2198      2201      2203      2198      2201      2204      2199      2198      2200
      2199      2198      2201      2200      2198      2201      2201      2204      2205
      2201      2204      2206      2201      2204      2207      2202      2201      2203
      2202      2201      2204      2203      2201      2204      2204      2207      2208
      2204      2207      2209      2205      2204      2206      2205      2204      2207
      2206      2204      2207      2207      2209      2210      2207      2209      2211
      2208      2207      2209      2209      2211      2212      2209      2211      2213
      2209      2211      2214      2210      2209      2211      2211      2214      2215
      2211      2214      2216      2211      2214      2217      2212      2211      2213
      2212      2211      2214      2213      2211      2214      2214      2217      2218
      2214      2217      2219      2214      2217      2220      2215      2214      2216
      2215      2214      2217      2216      2214      2217      2217      2220      2221
      2217      2220      2222      2217      2220      2223      2218      2217      2219
      2218      2217      2220      2219      2217      2220      2220      2223      2224
      2220      2223      2225      2220      2223      2226      2221      2220      2222
      2221      2220      2223      2222      2220      2223      2223      2226      2227
      2223      2226      2228      2223      2226      2229      2224      2223      2225
      2224      2223      2226      2225      2223      2226      2226      2229      2230
      2226      2229      2231      2226      2229      2232      2227      2226      2228
      2227      2226      2229      2228      2226      2229      2229      2232      2233
      2229      2232      2234      2229      2232      2235      2230      2229      2231
      2230      2229      2232      2231      2229      2232      2233      2232      2234
      2233      2232      2235      2234      2232      2235      2236      2239      2240
      2236      2239      2241      2236      2239      2242      2237      2236      2238
      2237      2236      2239      2238      2236      2239      2239      2242      2243
      2239      2242      2244      2239      2242      2245      2240      2239      2241
      2240      2239      2242      2241      2239      2242      2242      2245      2246
      2242      2245      2247      2242      2245      2248      2243      2242      2244
      2243      2242      2245      2244      2242      2245      2245      2248      2249
      2245      2248      2250      2245      2248      2251      2246      2245      2247
      2246      2245      2248      2247      2245      2248      2248      2251      2252
      2248      2251      2253      2248      2251      2254      2249      2248      2250
      2249      2248      2251      2250      2248      2251      2251      2254      2255
      2251      2254      2256      2251      2254      2257      2252      2251      2253
      2252      2251      2254      2253      2251      2254      2254      2257      2258
      2254      2257      2259      2254      2257      2260      2255      2254      2256
      2255      2254      2257      2256      2254      2257      2257      2260      2261
      2257      2260      2262      2257      2260      2263      2258      2257      2259
      2258      2257      2260      2259      2257      2260      2260      2263      2264
      2260      2263      2265      2260      2263      2266      2261      2260      2262
      2261      2260      2263      2262      2260      2263      2263      2266      2267
      2263      2266      2268      2263      2266      2269      2264      2263      2265
      2264      2263      2266      2265      2263      2266      2266      2269      2270
      2266      2269      2271      2266      2269      2272      2267      2266      2268
      2267      2266      2269      2268      2266      2269      2269      2272      2273
      2269      2272      2274      2269      2272      2275      2270      2269      2271
      2270      2269      2272      2271      2269      2272      2272      2275      2276
      2272      2275      2277      2272      2275      2278      2273      2272      2274
      2273      2272      2275      2274      2272      2275      2276      2275      2277
      2276      2275      2278      2277      2275      2278      2279      2280      2281
      2279      2280      2282      2279      2280      2295      2279      2283      2284
      2279      2283      2285      2279      2283      2286      2279      2287      2288
      2279      2287      2289      2279      2287      2290      2279      2291      2292
      2279      2291      2293      2279      2291      2294      2280      2279      2283
      2280      2279      2287      2280      2279      2291      2280      2295      2296
      2280      2295      2297      2280      2295      2301      2281      2280      2282
      2281      2280      2295      2282      2280      2295      2283      2279      2287
      2283      2279      2291      2284      2283      2285      2284      2283      2286
      2285      2283      2286      2287      2279      2291      2288      2287      2289
      2288      2287      2290      2289      2287      2290      2292      2291      2293
      2292      2291      2294      2293      2291      2294      2295      2301      2298
      2296      2295      2297      2296      2295      2301      2297      2295      2301
      2298      2302      2303      2299      2298      2300      2299      2298      2301
      2299      2298      2302      2300      2298      2301      2300      2298      2302
      2301      2298      2302      2302      2303      2304      2302      2303      2305
      2302      2303      2306      2303      2306      2307      2303      2306      2308
      2303      2306      2314      2304      2303      2305      2304      2303      2306
      2305      2303      2306      2306      2308      2309      2306      2314      2315
      2306      2314      2316      2306      2314      2317      2307      2306      2308
      2307      2306      2314      2308      2306      2314      2308      2309      2310
      2308      2309      2311      2309      2311      2312      2309      2311      2313
      2309      2311      2323      2310      2309      2311      2311      2323      2324
      2311      2323      2325      2311      2323      2326      2312      2311      2313
      2312      2311      2323      2313      2311      2323      2314      2317      2318
      2315      2314      2316      2315      2314      2317      2316      2314      2317
      2317      2318      2319      2317      2318      2320      2318      2320      2321
      2318      2320      2322      2318      2320      2370      2319      2318      2320
      2320      2370      2371      2320      2370      2372      2320      2370      2373
      2321      2320      2322      2321      2320      2370      2322      2320      2370
      2323      2326      2327      2323      2326      2328      2323      2326      2329
      2324      2323      2325      2324      2323      2326      2325      2323      2326
      2326      2329      2330      2326      2329      2331      2326      2329      2332
      2327      2326      2328      2327      2326      2329      2328      2326      2329
      2329      2332      2333      2329      2332      2334      2329      2332      2335
      2330      2329      2331      2330      2329      2332      2331      2329      2332
      2332      2335      2336      2332      2335      2337      2332      2335      2338
      2333      2332      2334      2333      2332      2335      2334      2332      2335
      2335      2338      2339      2335      2338      2340      2335      2338      2341
      2336      2335      2337      2336      2335      2338      2337      2335      2338
      2338      2341      2342      2338      2341      2343      2339      2338      2340
      2339      2338      2341      2340      2338      2341      2341      2343      2344
      2341      2343      2345      2342      2341      2343      2343      2345      2346
      2343      2345      2347      2343      2345      2348      2344      2343      2345
      2345      2348      2349      2345      2348      2350      2345      2348      2351
      2346      2345      2347      2346      2345      2348      2347      2345      2348
      2348      2351      2352      2348      2351      2353      2348      2351      2354
      2349      2348      2350      2349      2348      2351      2350      2348      2351
      2351      2354      2355      2351      2354      2356      2351      2354      2357
      2352      2351      2353      2352      2351      2354      2353      2351      2354
      2354      2357      2358      2354      2357      2359      2354      2357      2360
      2355      2354      2356      2355      2354      2357      2356      2354      2357
      2357      2360      2361      2357      2360      2362      2357      2360      2363
      2358      2357      2359      2358      2357      2360      2359      2357      2360
      2360      2363      2364      2360      2363      2365      2360      2363      2366
      2361      2360      2362      2361      2360      2363      2362      2360      2363
      2363      2366      2367      2363      2366      2368      2363      2366      2369
      2364      2363      2365      2364      2363      2366      2365      2363      2366
      2367      2366      2368      2367      2366      2369      2368      2366      2369
      2370      2373      2374      2370      2373      2375      2370      2373      2376
      2371      2370      2372      2371      2370      2373      2372      2370      2373
      2373      2376      2377      2373      2376      2378      2373      2376      2379
      2374      2373      2375      2374      2373      2376      2375      2373      2376
      2376      2379      2380      2376      2379      2381      2376      2379      2382
      2377      2376      2378      2377      2376      2379      2378      2376      2379
      2379      2382      2383      2379      2382      2384      2379      2382      2385
      2380      2379      2381      2380      2379      2382      2381      2379      2382
      2382      2385      2386      2382      2385      2387      2382      2385      2388
      2383      2382      2384      2383      2382      2385      2384      2382      2385
      2385      2388      2389      2385      2388      2390      2385      2388      2391
      2386      2385      2387      2386      2385      2388      2387      2385      2388
      2388      2391      2392      2388      2391      2393      2388      2391      2394
      2389      2388      2390      2389      2388      2391      2390      2388      2391
      2391      2394      2395      2391      2394      2396      2391      2394      2397
      2392      2391      2393      2392      2391      2394      2393      2391      2394
      2394      2397      2398      2394      2397      2399      2394      2397      2400
      2395      2394      2396      2395      2394      2397      2396      2394      2397
      2397      2400      2401      2397      2400      2402      2397      2400      2403
      2398      2397      2399      2398      2397      2400      2399      2397      2400
      2400      2403      2404      2400      2403      2405      2400      2403      2406
      2401      2400      2402      2401      2400      2403      2402      2400      2403
      2403      2406      2407      2403      2406      2408      2403      2406      2409
      2404      2403      2405      2404      2403      2406      2405      2403      2406
      2406      2409      2410      2406      2409      2411      2406      2409      2412
      2407      2406      2408      2407      2406      2409      2408      2406      2409
      2410      2409      2411      2410      2409      2412      2411      2409      2412
      2413      2414      2415      2413      2414      2416      2413      2414      2429
      2413      2417      2418      2413      2417      2419      2413      2417      2420
      2413      2421      2422      2413      2421      2423      2413      2421      2424
      2413      2425      2426      2413      2425      2427      2413      2425      2428
      2414      2413      2417      2414      2413      2421      2414      2413      2425
      2414      2429      2430      2414      2429      2431      2414      2429      2435
      2415      2414      2416      2415      2414      2429      2416      2414      2429
      2417      2413      2421      2417      2413      2425      2418      2417      2419
      2418      2417      2420      2419      2417      2420      2421      2413      2425
      2422      2421      2423      2422      2421      2424      2423      2421      2424
      2426      2425      2427      2426      2425      2428      2427      2425      2428
      2429      2435      2432      2430      2429      2431      2430      2429      2435
      2431      2429      2435      2432      2436      2437      2433      2432      2434
      2433      2432      2435      2433      2432      2436      2434      2432      2435
      2434      2432      2436      2435      2432      2436      2436      2437      2438
      2436      2437      2439      2436      2437      2440      2437      2440      2441
      2437      2440      2442      2437      2440      2448      2438      2437      2439
      2438      2437      2440      2439      2437      2440      2440      2442      2443
      2440      2448      2449      2440      2448      2450      2440      2448      2451
      2441      2440      2442      2441      2440      2448      2442      2440      2448
      2442      2443      2444      2442      2443      2445      2443      2445      2446
      2443      2445      2447      2443      2445      2457      2444      2443      2445
      2445      2457      2458      2445      2457      2459      2445      2457      2460
      2446      2445      2447      2446      2445      2457      2447      2445      2457
      2448      2451      2452      2449      2448      2450      2449      2448      2451
      2450      2448      2451      2451      2452      2453      2451      2452      2454
      2452      2454      2455      2452      2454      2456      2452      2454      2504
      2453      2452      2454      2454      2504      2505      2454      2504      2506
      2454      2504      2507      2455      2454      2456      2455      2454      2504
      2456      2454      2504      2457      2460      2461      2457      2460      2462
      2457      2460      2463      2458      2457      2459      2458      2457      2460
      2459      2457      2460      2460      2463      2464      2460      2463      2465
      2460      2463      2466      2461      2460      2462      2461      2460      2463
      2462      2460      2463      2463      2466      2467      2463      2466      2468
      2463      2466      2469      2464      2463      2465      2464      2463      2466
      2465      2463      2466      2466      2469      2470      2466      2469      2471
      2466      2469      2472      2467      2466      2468      2467      2466      2469
      2468      2466      2469      2469      2472      2473      2469      2472      2474
      2469      2472      2475      2470      2469      2471      2470      2469      2472
      2471      2469      2472      2472      2475      2476      2472      2475      2477
      2473      2472      2474      2473      2472      2475      2474      2472      2475
      2475      2477      2478      2475      2477      2479      2476      2475      2477
      2477      2479      2480      2477      2479      2481      2477      2479      2482
      2478      2477      2479      2479      2482      2483      2479      2482      2484
      2479      2482      2485      2480      2479      2481      2480      2479      2482
      2481      2479      2482      2482      2485      2486      2482      2485      2487
      2482      2485      2488      2483      2482      2484      2483      2482      2485
      2484      2482      2485      2485      2488      2489      2485      2488      2490
      2485      2488      2491      2486      2485      2487      2486      2485      2488
      2487      2485      2488      2488      2491      2492      2488      2491      2493
      2488      2491      2494      2489      2488      2490      2489      2488      2491
      2490      2488      2491      2491      2494      2495      2491      2494      2496
      2491      2494      2497      2492      2491      2493      2492      2491      2494
      2493      2491      2494      2494      2497      2498      2494      2497      2499
      2494      2497      2500      2495      2494      2496      2495      2494      2497
      2496      2494      2497      2497      2500      2501      2497      2500      2502
      2497      2500      2503      2498      2497      2499      2498      2497      2500
      2499      2497      2500      2501      2500      2502      2501      2500      2503
      2502      2500      2503      2504      2507      2508      2504      2507      2509
      2504      2507      2510      2505      2504      2506      2505      2504      2507
      2506      2504      2507      2507      2510      2511      2507      2510      2512
      2507      2510      2513      2508      2507      2509      2508      2507      2510
      2509      2507      2510      2510      2513      2514      2510      2513      2515
      2510      2513      2516      2511      2510      2512      2511      2510      2513
      2512      2510      2513      2513      2516      2517      2513      2516      2518
      2513      2516      2519      2514      2513      2515      2514      2513      2516
      2515      2513      2516      2516      2519      2520      2516      2519      2521
      2516      2519      2522      2517      2516      2518      2517      2516      2519
      2518      2516      2519      2519      2522      2523      2519      2522      2524
      2519      2522      2525      2520      2519      2521      2520      2519      2522
      2521      2519      2522      2522      2525      2526      2522      2525      2527
      2522      2525      2528      2523      2522      2524      2523      2522      2525
      2524      2522      2525      2525      2528      2529      2525      2528      2530
      2525      2528      2531      2526      2525      2527      2526      2525      2528
      2527      2525      2528      2528      2531      2532      2528      2531      2533
      2528      2531      2534      2529      2528      2530      2529      2528      2531
      2530      2528      2531      2531      2534      2535      2531      2534      2536
      2531      2534      2537      2532      2531      2533      2532      2531      2534
      2533      2531      2534      2534      2537      2538      2534      2537      2539
      2534      2537      2540      2535      2534      2536      2535      2534      2537
      2536      2534      2537      2537      2540      2541      2537      2540      2542
      2537      2540      2543      2538      2537      2539      2538      2537      2540
      2539      2537      2540      2540      2543      2544      2540      2543      2545
      2540      2543      2546      2541      2540      2542      2541      2540      2543
      2542      2540      2543      2544      2543      2545      2544      2543      2546
      2545      2543      2546      2547      2548      2549      2547      2548      2550
      2547      2548      2563      2547      2551      2552      2547      2551      2553
      2547      2551      2554      2547      2555      2556      2547      2555      2557
      2547      2555      2558      2547      2559      2560      2547      2559      2561
      2547      2559      2562      2548      2547      2551      2548      2547      2555
      2548      2547      2559      2548      2563      2564      2548      2563      2565
      2548      2563      2569      2549      2548      2550      2549      2548      2563
      2550      2548      2563      2551      2547      2555      2551      2547      2559
      2552      2551      2553      2552      2551      2554      2553      2551      2554
      2555      2547      2559      2556      2555      2557      2556      2555      2558
      2557      2555      2558      2560      2559      2561      2560      2559      2562
      2561      2559      2562      2563      2569      2566      2564      2563      2565
      2564      2563      2569      2565      2563      2569      2566      2570      2571
      2567      2566      2568      2567      2566      2569      2567      2566      2570
      2568      2566      2569      2568      2566      2570      2569      2566      2570
      2570      2571      2572      2570      2571      2573      2570      2571      2574
      2571      2574      2575      2571      2574      2576      2571      2574      2582
      2572      2571      2573      2572      2571      2574      2573      2571      2574
      2574      2576      2577      2574      2582      2583      2574      2582      2584
      2574      2582      2585      2575      2574      2576      2575      2574      2582
      2576      2574      2582      2576      2577      2578      2576      2577      2579
      2577      2579      2580      2577      2579      2581      2577      2579      2591
      2578      2577      2579      2579      2591      2592      2579      2591      2593
      2579      2591      2594      2580      2579      2581      2580      2579      2591
      2581      2579      2591      2582      2585      2586      2583      2582      2584
      2583      2582      2585      2584      2582      2585      2585      2586      2587
      2585      2586      2588      2586      2588      2589      2586      2588      2590
      2586      2588      2638      2587      2586      2588      2588      2638      2639
      2588      2638      2640      2588      2638      2641      2589      2588      2590
      2589      2588      2638      2590      2588      2638      2591      2594      2595
      2591      2594      2596      2591      2594      2597      2592      2591      2593
      2592      2591      2594      2593      2591      2594      2594      2597      2598
      2594      2597      2599      2594      2597      2600      2595      2594      2596
      2595      2594      2597      2596      2594      2597      2597      2600      2601
      2597      2600      2602      2597      2600      2603      2598      2597      2599
      2598      2597      2600      2599      2597      2600      2600      2603      2604
      2600      2603      2605      2600      2603      2606      2601      2600      2602
      2601      2600      2603      2602      2600      2603      2603      2606      2607
      2603      2606      2608      2603      2606      2609      2604      2603      2605
      2604      2603      2606      2605      2603      2606      2606      2609      2610
      2606      2609      2611      2607      2606      2608      2607      2606      2609
      2608      2606      2609      2609      2611      2612      2609      2611      2613
      2610      2609      2611      2611      2613      2614      2611      2613      2615
      2611      2613      2616      2612      2611      2613      2613      2616      2617
      2613      2616      2618      2613      2616      2619      2614      2613      2615
      2614      2613      2616      2615      2613      2616      2616      2619      2620
      2616      2619      2621      2616      2619      2622      2617      2616      2618
      2617      2616      2619      2618      2616      2619      2619      2622      2623
      2619      2622      2624      2619      2622      2625      2620      2619      2621
      2620      2619      2622      2621      2619      2622      2622      2625      2626
      2622      2625      2627      2622      2625      2628      2623      2622      2624
      2623      2622      2625      2624      2622      2625      2625      2628      2629
      2625      2628      2630      2625      2628      2631      2626      2625      2627
      2626      2625      2628      2627      2625      2628      2628      2631      2632
      2628      2631      2633      2628      2631      2634      2629      2628      2630
      2629      2628      2631      2630      2628      2631      2631      2634      2635
      2631      2634      2636      2631      2634      2637      2632      2631      2633
      2632      2631      2634      2633      2631      2634      2635      2634      2636
      2635      2634      2637      2636      2634      2637      2638      2641      2642
      2638      2641      2643      2638      2641      2644      2639      2638      2640
      2639      2638      2641      2640      2638      2641      2641      2644      2645
      2641      2644      2646      2641      2644      2647      2642      2641      2643
      2642      2641      2644      2643      2641      2644      2644      2647      2648
      2644      2647      2649      2644      2647      2650      2645      2644      2646
      2645      2644      2647      2646      2644      2647      2647      2650      2651
      2647      2650      2652      2647      2650      2653      2648      2647      2649
      2648      2647      2650      2649      2647      2650      2650      2653      2654
      2650      2653      2655      2650      2653      2656      2651      2650      2652
      2651      2650      2653      2652      2650      2653      2653      2656      2657
      2653      2656      2658      2653      2656      2659      2654      2653      2655
      2654      2653      2656      2655      2653      2656      2656      2659      2660
      2656      2659      2661      2656      2659      2662      2657      2656      2658
      2657      2656      2659      2658      2656      2659      2659      2662      2663
      2659      2662      2664      2659      2662      2665      2660      2659      2661
      2660      2659      2662      2661      2659      2662      2662      2665      2666
      2662      2665      2667      2662      2665      2668      2663      2662      2664
      2663      2662      2665      2664      2662      2665      2665      2668      2669
      2665      2668      2670      2665      2668      2671      2666      2665      2667
      2666      2665      2668      2667      2665      2668      2668      2671      2672
      2668      2671      2673      2668      2671      2674      2669      2668      2670
      2669      2668      2671      2670      2668      2671      2671      2674      2675
      2671      2674      2676      2671      2674      2677      2672      2671      2673
      2672      2671      2674      2673      2671      2674      2674      2677      2678
      2674      2677      2679      2674      2677      2680      2675      2674      2676
      2675      2674      2677      2676      2674      2677      2678      2677      2679
      2678      2677      2680      2679      2677      2680      2681      2682      2683
      2681      2682      2684      2681      2682      2697      2681      2685      2686
      2681      2685      2687      2681      2685      2688      2681      2689      2690
      2681      2689      2691      2681      2689      2692      2681      2693      2694
      2681      2693      2695      2681      2693      2696      2682      2681      2685
      2682      2681      2689      2682      2681      2693      2682      2697      2698
      2682      2697      2699      2682      2697      2703      2683      2682      2684
      2683      2682      2697      2684      2682      2697      2685      2681      2689
      2685      2681      2693      2686      2685      2687      2686      2685      2688
      2687      2685      2688      2689      2681      2693      2690      2689      2691
      2690      2689      2692      2691      2689      2692      2694      2693      2695
      2694      2693      2696      2695      2693      2696      2697      2703      2700
      2698      2697      2699      2698      2697      2703      2699      2697      2703
      2700      2704      2705      2701      2700      2702      2701      2700      2703
      2701      2700      2704      2702      2700      2703      2702      2700      2704
      2703      2700      2704      2704      2705      2706      2704      2705      2707
      2704      2705      2708      2705      2708      2709      2705      2708      2710
      2705      2708      2716      2706      2705      2707      2706      2705      2708
      2707      2705      2708      2708      2710      2711      2708      2716      2717
      2708      2716      2718      2708      2716      2719      2709      2708      2710
      2709      2708      2716      2710      2708      2716      2710      2711      2712
      2710      2711      2713      2711      2713      2714      2711      2713      2715
      2711      2713      2725      2712      2711      2713      2713      2725      2726
      2713      2725      2727      2713      2725      2728      2714      2713      2715
      2714      2713      2725      2715      2713      2725      2716      2719      2720
      2717      2716      2718      2717      2716      2719      2718      2716      2719
      2719      2720      2721      2719      2720      2722      2720      2722      2723
      2720      2722      2724      2720      2722      2772      2721      2720      2722
      2722      2772      2773      2722      2772      2774      2722      2772      2775
      2723      2722      2724      2723      2722      2772      2724      2722      2772
      2725      2728      2729      2725      2728      2730      2725      2728      2731
      2726      2725      2727      2726      2725      2728      2727      2725      2728
      2728      2731      2732      2728      2731      2733      2728      2731      2734
      2729      2728      2730      2729      2728      2731      2730      2728      2731
      2731      2734      2735      2731      2734      2736      2731      2734      2737
      2732      2731      2733      2732      2731      2734      2733      2731      2734
      2734      2737      2738      2734      2737      2739      2734      2737      2740
      2735      2734      2736      2735      2734      2737      2736      2734      2737
      2737      2740      2741      2737      2740      2742      2737      2740      2743
      2738      2737      2739      2738      2737      2740      2739      2737      2740
      2740      2743      2744      2740      2743      2745      2741      2740      2742
      2741      2740      2743      2742      2740      2743      2743      2745      2746
      2743      2745      2747      2744      2743      2745      2745      2747      2748
      2745      2747      2749      2745      2747      2750      2746      2745      2747
      2747      2750      2751      2747      2750      2752      2747      2750      2753
      2748      2747      2749      2748      2747      2750      2749      2747      2750
      2750      2753      2754      2750      2753      2755      2750      2753      2756
      2751      2750      2752      2751      2750      2753      2752      2750      2753
      2753      2756      2757      2753      2756      2758      2753      2756      2759
      2754      2753      2755      2754      2753      2756      2755      2753      2756
      2756      2759      2760      2756      2759      2761      2756      2759      2762
      2757      2756      2758      2757      2756      2759      2758      2756      2759
      2759      2762      2763      2759      2762      2764      2759      2762      2765
      2760      2759      2761      2760      2759      2762      2761      2759      2762
      2762      2765      2766      2762      2765      2767      2762      2765      2768
      2763      2762      2764      2763      2762      2765      2764      2762      2765
      2765      2768      2769      2765      2768      2770      2765      2768      2771
      2766      2765      2767      2766      2765      2768      2767      2765      2768
      2769      2768      2770      2769      2768      2771      2770      2768      2771
      2772      2775      2776      2772      2775      2777      2772      2775      2778
      2773      2772      2774      2773      2772      2775      2774      2772      2775
      2775      2778      2779      2775      2778      2780      2775      2778      2781
      2776      2775      2777      2776      2775      2778      2777      2775      2778
      2778      2781      2782      2778      2781      2783      2778      2781      2784
      2779      2778      2780      2779      2778      2781      2780      2778      2781
      2781      2784      2785      2781      2784      2786      2781      2784      2787
      2782      2781      2783      2782      2781      2784      2783      2781      2784
      2784      2787      2788      2784      2787      2789      2784      2787      2790
      2785      2784      2786      2785      2784      2787      2786      2784      2787
      2787      2790      2791      2787      2790      2792      2787      2790      2793
      2788      2787      2789      2788      2787      2790      2789      2787      2790
      2790      2793      2794      2790      2793      2795      2790      2793      2796
      2791      2790      2792      2791      2790      2793      2792      2790      2793
      2793      2796      2797      2793      2796      2798      2793      2796      2799
      2794      2793      2795      2794      2793      2796      2795      2793      2796
      2796      2799      2800      2796      2799      2801      2796      2799      2802
      2797      2796      2798      2797      2796      2799      2798      2796      2799
      2799      2802      2803      2799      2802      2804      2799      2802      2805
      2800      2799      2801      2800      2799      2802      2801      2799      2802
      2802      2805      2806      2802      2805      2807      2802      2805      2808
      2803      2802      2804      2803      2802      2805      2804      2802      2805
      2805      2808      2809      2805      2808      2810      2805      2808      2811
      2806      2805      2807      2806      2805      2808      2807      2805      2808
      2808      2811      2812      2808      2811      2813      2808      2811      2814
      2809      2808      2810      2809      2808      2811      2810      2808      2811
      2812      2811      2813      2812      2811      2814      2813      2811      2814
      2815      2816      2817      2815      2816      2818      2815      2816      2831
      2815      2819      2820      2815      2819      2821      2815      2819      2822
      2815      2823      2824      2815      2823      2825      2815      2823      2826
      2815      2827      2828      2815      2827      2829      2815      2827      2830
      2816      2815      2819      2816      2815      2823      2816      2815      2827
      2816      2831      2832      2816      2831      2833      2816      2831      2837
      2817      2816      2818      2817      2816      2831      2818      2816      2831
      2819      2815      2823      2819      2815      2827      2820      2819      2821
      2820      2819      2822      2821      2819      2822      2823      2815      2827
      2824      2823      2825      2824      2823      2826      2825      2823      2826
      2828      2827      2829      2828      2827      2830      2829      2827      2830
      2831      2837      2834      2832      2831      2833      2832      2831      2837
      2833      2831      2837      2834      2838      2839      2835      2834      2836
      2835      2834      2837      2835      2834      2838      2836      2834      2837
      2836      2834      2838      2837      2834      2838      2838      2839      2840
      2838      2839      2841      2838      2839      2842      2839      2842      2843
      2839      2842      2844      2839      2842      2850      2840      2839      2841
      2840      2839      2842      2841      2839      2842      2842      2844      2845
      2842      2850      2851      2842      2850      2852      2842      2850      2853
      2843      2842      2844      2843      2842      2850      2844      2842      2850
      2844      2845      2846      2844      2845      2847      2845      2847      2848
      2845      2847      2849      2845      2847      2859      2846      2845      2847
      2847      2859      2860      2847      2859      2861      2847      2859      2862
      2848      2847      2849      2848      2847      2859      2849      2847      2859
      2850      2853      2854      2851      2850      2852      2851      2850      2853
      2852      2850      2853      2853      2854      2855      2853      2854      2856
      2854      2856      2857      2854      2856      2858      2854      2856      2906
      2855      2854      2856      2856      2906      2907      2856      2906      2908
      2856      2906      2909      2857      2856      2858      2857      2856      2906
      2858      2856      2906      2859      2862      2863      2859      2862      2864
      2859      2862      2865      2860      2859      2861      2860      2859      2862
      2861      2859      2862      2862      2865      2866      2862      2865      2867
      2862      2865      2868      2863      2862      2864      2863      2862      2865
      2864      2862      2865      2865      2868      2869      2865      2868      2870
      2865      2868      2871      2866      2865      2867      2866      2865      2868
      2867      2865      2868      2868      2871      2872      2868      2871      2873
      2868      2871      2874      2869      2868      2870      2869      2868      2871
      2870      2868      2871      2871      2874      2875      2871      2874      2876
      2871      2874      2877      2872      2871      2873      2872      2871      2874
      2873      2871      2874      2874      2877      2878      2874      2877      2879
      2875      2874      2876      2875      2874      2877      2876      2874      2877
      2877      2879      2880      2877      2879      2881      2878      2877      2879
      2879      2881      2882      2879      2881      2883      2879      2881      2884
      2880      2879      2881      2881      2884      2885      2881      2884      2886
      2881      2884      2887      2882      2881      2883      2882      2881      2884
      2883      2881      2884      2884      2887      2888      2884      2887      2889
      2884      2887      2890      2885      2884      2886      2885      2884      2887
      2886      2884      2887      2887      2890      2891      2887      2890      2892
      2887      2890      2893      2888      2887      2889      2888      2887      2890
      2889      2887      2890      2890      2893      2894      2890      2893      2895
      2890      2893      2896      2891      2890      2892      2891      2890      2893
      2892      2890      2893      2893      2896      2897      2893      2896      2898
      2893      2896      2899      2894      2893      2895      2894      2893      2896
      2895      2893      2896      2896      2899      2900      2896      2899      2901
      2896      2899      2902      2897      2896      2898      2897      2896      2899
      2898      2896      2899      2899      2902      2903      2899      2902      2904
      2899      2902      2905      2900      2899      2901      2900      2899      2902
      2901      2899      2902      2903      2902      2904      2903      2902      2905
      2904      2902      2905      2906      2909      2910      2906      2909      2911
      2906      2909      2912      2907      2906      2908      2907      2906      2909
      2908      2906      2909      2909      2912      2913      2909      2912      2914
      2909      2912      2915      2910      2909      2911      2910      2909      2912
      2911      2909      2912      2912      2915      2916      2912      2915      2917
      2912      2915      2918      2913      2912      2914      2913      2912      2915
      2914      2912      2915      2915      2918      2919      2915      2918      2920
      2915      2918      2921      2916      2915      2917      2916      2915      2918
      2917      2915      2918      2918      2921      2922      2918      2921      2923
      2918      2921      2924      2919      2918      2920      2919      2918      2921
      2920      2918      2921      2921      2924      2925      2921      2924      2926
      2921      2924      2927      2922      2921      2923      2922      2921      2924
      2923      2921      2924      2924      2927      2928      2924      2927      2929
      2924      2927      2930      2925      2924      2926      2925      2924      2927
      2926      2924      2927      2927      2930      2931      2927      2930      2932
      2927      2930      2933      2928      2927      2929      2928      2927      2930
      2929      2927      2930      2930      2933      2934      2930      2933      2935
      2930      2933      2936      2931      2930      2932      2931      2930      2933
      2932      2930      2933      2933      2936      2937      2933      2936      2938
      2933      2936      2939      2934      2933      2935      2934      2933      2936
      2935      2933      2936      2936      2939      2940      2936      2939      2941
      2936      2939      2942      2937      2936      2938      2937      2936      2939
      2938      2936      2939      2939      2942      2943      2939      2942      2944
      2939      2942      2945      2940      2939      2941      2940      2939      2942
      2941      2939      2942      2942      2945      2946      2942      2945      2947
      2942      2945      2948      2943      2942      2944      2943      2942      2945
      2944      2942      2945      2946      2945      2947      2946      2945      2948
      2947      2945      2948      2949      2950      2951      2949      2950      2952
      2949      2950      2965      2949      2953      2954      2949      2953      2955
      2949      2953      2956      2949      2957      2958      2949      2957      2959
      2949      2957      2960      2949      2961      2962      2949      2961      2963
      2949      2961      2964      2950      2949      2953      2950      2949      2957
      2950      2949      2961      2950      2965      2966      2950      2965      2967
      2950      2965      2971      2951      2950      2952      2951      2950      2965
      2952      2950      2965      2953      2949      2957      2953      2949      2961
      2954      2953      2955      2954      2953      2956      2955      2953      2956
      2957      2949      2961      2958      2957      2959      2958      2957      2960
      2959      2957      2960      2962      2961      2963      2962      2961      2964
      2963      2961      2964      2965      2971      2968      2966      2965      2967
      2966      2965      2971      2967      2965      2971      2968      2972      2973
      2969      2968      2970      2969      2968      2971      2969      2968      2972
      2970      2968      2971      2970      2968      2972      2971      2968      2972
      2972      2973      2974      2972      2973      2975      2972      2973      2976
      2973      2976      2977      2973      2976      2978      2973      2976      2984
      2974      2973      2975      2974      2973      2976      2975      2973      2976
      2976      2978      2979      2976      2984      2985      2976      2984      2986
      2976      2984      2987      2977      2976      2978      2977      2976      2984
      2978      2976      2984      2978      2979      2980      2978      2979      2981
      2979      2981      2982      2979      2981      2983      2979      2981      2993
      2980      2979      2981      2981      2993      2994      2981      2993      2995
      2981      2993      2996      2982      2981      2983      2982      2981      2993
      2983      2981      2993      2984      2987      2988      2985      2984      2986
      2985      2984      2987      2986      2984      2987      2987      2988      2989
      2987      2988      2990      2988      2990      2991      2988      2990      2992
      2988      2990      3040      2989      2988      2990      2990      3040      3041
      2990      3040      3042      2990      3040      3043      2991      2990      2992
      2991      2990      3040      2992      2990      3040      2993      2996      2997
      2993      2996      2998      2993      2996      2999      2994      2993      2995
      2994      2993      2996      2995      2993      2996      2996      2999      3000
      2996      2999      3001      2996      2999      3002      2997      2996      2998
      2997      2996      2999      2998      2996      2999      2999      3002      3003
      2999      3002      3004      2999      3002      3005      3000      2999      3001
      3000      2999      3002      3001      2999      3002      3002      3005      3006
      3002      3005      3007      3002      3005      3008      3003      3002      3004
      3003      3002      3005      3004      3002      3005      3005      3008      3009
      3005      3008      3010      3005      3008      3011      3006      3005      3007
      3006      3005      3008      3007      3005      3008      3008      3011      3012
      3008      3011      3013      3009      3008      3010      3009      3008      3011
      3010      3008      3011      3011      3013      3014      3011      3013      3015
      3012      3011      3013      3013      3015      3016      3013      3015      3017
      3013      3015      3018      3014      3013      3015      3015      3018      3019
      3015      3018      3020      3015      3018      3021      3016      3015      3017
      3016      3015      3018      3017      3015      3018      3018      3021      3022
      3018      3021      3023      3018      3021      3024      3019      3018      3020
      3019      3018      3021      3020      3018      3021      3021      3024      3025
      3021      3024      3026      3021      3024      3027      3022      3021      3023
      3022      3021      3024      3023      3021      3024      3024      3027      3028
      3024      3027      3029      3024      3027      3030      3025      3024      3026
      3025      3024      3027      3026      3024      3027      3027      3030      3031
      3027      3030      3032      3027      3030      3033      3028      3027      3029
      3028      3027      3030      3029      3027      3030      3030      3033      3034
      3030      3033      3035      3030      3033      3036      3031      3030      3032
      3031      3030      3033      3032      3030      3033      3033      3036      3037
      3033      3036      3038      3033      3036      3039      3034      3033      3035
      3034      3033      3036      3035      3033      3036      3037      3036      3038
      3037      3036      3039      3038      3036      3039      3040      3043      3044
      3040      3043      3045      3040      3043      3046      3041      3040      3042
      3041      3040      3043      3042      3040      3043      3043      3046      3047
      3043      3046      3048      3043      3046      3049      3044      3043      3045
      3044      3043      3046      3045      3043      3046      3046      3049      3050
      3046      3049      3051      3046      3049      3052      3047      3046      3048
      3047      3046      3049      3048      3046      3049      3049      3052      3053
      3049      3052      3054      3049      3052      3055      3050      3049      3051
      3050      3049      3052      3051      3049      3052      3052      3055      3056
      3052      3055      3057      3052      3055      3058      3053      3052      3054
      3053      3052      3055      3054      3052      3055      3055      3058      3059
      3055      3058      3060      3055      3058      3061      3056      3055      3057
      3056      3055      3058      3057      3055      3058      3058      3061      3062
      3058      3061      3063      3058      3061      3064      3059      3058      3060
      3059      3058      3061      3060      3058      3061      3061      3064      3065
      3061      3064      3066      3061      3064      3067      3062      3061      3063
      3062      3061      3064      3063      3061      3064      3064      3067      3068
      3064      3067      3069      3064      3067      3070      3065      3064      3066
      3065      3064      3067      3066      3064      3067      3067      3070      3071
      3067      3070      3072      3067      3070      3073      3068      3067      3069
      3068      3067      3070      3069      3067      3070      3070      3073      3074
      3070      3073      3075      3070      3073      3076      3071      3070      3072
      3071      3070      3073      3072      3070      3073      3073      3076      3077
      3073      3076      3078      3073      3076      3079      3074      3073      3075
      3074      3073      3076      3075      3073      3076      3076      3079      3080
      3076      3079      3081      3076      3079      3082      3077      3076      3078
      3077      3076      3079      3078      3076      3079      3080      3079      3081
      3080      3079      3082      3081      3079      3082      3083      3084      3085
      3083      3084      3086      3083      3084      3099      3083      3087      3088
      3083      3087      3089      3083      3087      3090      3083      3091      3092
      3083      3091      3093      3083      3091      3094      3083      3095      3096
      3083      3095      3097      3083      3095      3098      3084      3083      3087
      3084      3083      3091      3084      3083      3095      3084      3099      3100
      3084      3099      3101      3084      3099      3105      3085      3084      3086
      3085      3084      3099      3086      3084      3099      3087      3083      3091
      3087      3083      3095      3088      3087      3089      3088      3087      3090
      3089      3087      3090      3091      3083      3095      3092      3091      3093
      3092      3091      3094      3093      3091      3094      3096      3095      3097
      3096      3095      3098      3097      3095      3098      3099      3105      3102
      3100      3099      3101      3100      3099      3105      3101      3099      3105
      3102      3106      3107      3103      3102      3104      3103      3102      3105
      3103      3102      3106      3104      3102      3105      3104      3102      3106
      3105      3102      3106      3106      3107      3108      3106      3107      3109
      3106      3107      3110      3107      3110      3111      3107      3110      3112
      3107      3110      3118      3108      3107      3109      3108      3107      3110
      3109      3107      3110      3110      3112      3113      3110      3118      3119
      3110      3118      3120      3110      3118      3121      3111      3110      3112
      3111      3110      3118      3112      3110      3118      3112      3113      3114
      3112      3113      3115      3113      3115      3116      3113      3115      3117
      3113      3115      3127      3114      3113      3115      3115      3127      3128
      3115      3127      3129      3115      3127      3130      3116      3115      3117
      3116      3115      3127      3117      3115      3127      3118      3121      3122
      3119      3118      3120      3119      3118      3121      3120      3118      3121
      3121      3122      3123      3121      3122      3124      3122      3124      3125
      3122      3124      3126      3122      3124      3174      3123      3122      3124
      3124      3174      3175      3124      3174      3176      3124      3174      3177
      3125      3124      3126      3125      3124      3174      3126      3124      3174
      3127      3130      3131      3127      3130      3132      3127      3130      3133
      3128      3127      3129      3128      3127      3130      3129      3127      3130
      3130      3133      3134      3130      3133      3135      3130      3133      3136
      3131      3130      3132      3131      3130      3133      3132      3130      3133
      3133      3136      3137      3133      3136      3138      3133      3136      3139
      3134      3133      3135      3134      3133      3136      3135      3133      3136
      3136      3139      3140      3136      3139      3141      3136      3139      3142
      3137      3136      3138      3137      3136      3139      3138      3136      3139
      3139      3142      3143      3139      3142      3144      3139      3142      3145
      3140      3139      3141      3140      3139      3142      3141      3139      3142
      3142      3145      3146      3142      3145      3147      3143      3142      3144
      3143      3142      3145      3144      3142      3145      3145      3147      3148
      3145      3147      3149      3146      3145      3147      3147      3149      3150
      3147      3149      3151      3147      3149      3152      3148      3147      3149
      3149      3152      3153      3149      3152      3154      3149      3152      3155
      3150      3149      3151      3150      3149      3152      3151      3149      3152
      3152      3155      3156      3152      3155      3157      3152      3155      3158
      3153      3152      3154      3153      3152      3155      3154      3152      3155
      3155      3158      3159      3155      3158      3160      3155      3158      3161
      3156      3155      3157      3156      3155      3158      3157      3155      3158
      3158      3161      3162      3158      3161      3163      3158      3161      3164
      3159      3158      3160      3159      3158      3161      3160      3158      3161
      3161      3164      3165      3161      3164      3166      3161      3164      3167
      3162      3161      3163      3162      3161      3164      3163      3161      3164
      3164      3167      3168      3164      3167      3169      3164      3167      3170
      3165      3164      3166      3165      3164      3167      3166      3164      3167
      3167      3170      3171      3167      3170      3172      3167      3170      3173
      3168      3167      3169      3168      3167      3170      3169      3167      3170
      3171      3170      3172      3171      3170      3173      3172      3170      3173
      3174      3177      3178      3174      3177      3179      3174      3177      3180
      3175      3174      3176      3175      3174      3177      3176      3174      3177
      3177      3180      3181      3177      3180      3182      3177      3180      3183
      3178      3177      3179      3178      3177      3180      3179      3177      3180
      3180      3183      3184      3180      3183      3185      3180      3183      3186
      3181      3180      3182      3181      3180      3183      3182      3180      3183
      3183      3186      3187      3183      3186      3188      3183      3186      3189
      3184      3183      3185      3184      3183      3186      3185      3183      3186
      3186      3189      3190      3186      3189      3191      3186      3189      3192
      3187      3186      3188      3187      3186      3189      3188      3186      3189
      3189      3192      3193      3189      3192      3194      3189      3192      3195
      3190      3189      3191      3190      3189      3192      3191      3189      3192
      3192      3195      3196      3192      3195      3197      3192      3195      3198
      3193      3192      3194      3193      3192      3195      3194      3192      3195
      3195      3198      3199      3195      3198      3200      3195      3198      3201
      3196      3195      3197      3196      3195      3198      3197      3195      3198
      3198      3201      3202      3198      3201      3203      3198      3201      3204
      3199      3198      3200      3199      3198      3201      3200      3198      3201
      3201      3204      3205      3201      3204      3206      3201      3204      3207
      3202      3201      3203      3202      3201      3204      3203      3201      3204
      3204      3207      3208      3204      3207      3209      3204      3207      3210
      3205      3204      3206      3205      3204      3207      3206      3204      3207
      3207      3210      3211      3207      3210      3212      3207      3210      3213
      3208      3207      3209      3208      3207      3210      3209      3207      3210
      3210      3213      3214      3210      3213      3215      3210      3213      3216
      3211      3210      3212      3211      3210      3213      3212      3210      3213
      3214      3213      3215      3214      3213      3216      3215      3213      3216
      3217      3218      3219      3217      3218      3220      3217      3218      3233
      3217      3221      3222      3217      3221      3223      3217      3221      3224
      3217      3225      3226      3217      3225      3227      3217      3225      3228
      3217      3229      3230      3217      3229      3231      3217      3229      3232
      3218      3217      3221      3218      3217      3225      3218      3217      3229
      3218      3233      3234      3218      3233      3235      3218      3233      3239
      3219      3218      3220      3219      3218      3233      3220      3218      3233
      3221      3217      3225      3221      3217      3229      3222      3221      3223
      3222      3221      3224      3223      3221      3224      3225      3217      3229
      3226      3225      3227      3226      3225      3228      3227      3225      3228
      3230      3229      3231      3230      3229      3232      3231      3229      3232
      3233      3239      3236      3234      3233      3235      3234      3233      3239
      3235      3233      3239      3236      3240      3241      3237      3236      3238
      3237      3236      3239      3237      3236      3240      3238      3236      3239
      3238      3236      3240      3239      3236      3240      3240      3241      3242
      3240      3241      3243      3240      3241      3244      3241      3244      3245
      3241      3244      3246      3241      3244      3252      3242      3241      3243
      3242      3241      3244      3243      3241      3244      3244      3246      3247
      3244      3252      3253      3244      3252      3254      3244      3252      3255
      3245      3244      3246      3245      3244      3252      3246      3244      3252
      3246      3247      3248      3246      3247      3249      3247      3249      3250
      3247      3249      3251      3247      3249      3261      3248      3247      3249
      3249      3261      3262      3249      3261      3263      3249      3261      3264
      3250      3249      3251      3250      3249      3261      3251      3249      3261
      3252      3255      3256      3253      3252      3254      3253      3252      3255
      3254      3252      3255      3255      3256      3257      3255      3256      3258
      3256      3258      3259      3256      3258      3260      3256      3258      3308
      3257      3256      3258      3258      3308      3309      3258      3308      3310
      3258      3308      3311      3259      3258      3260      3259      3258      3308
      3260      3258      3308      3261      3264      3265      3261      3264      3266
      3261      3264      3267      3262      3261      3263      3262      3261      3264
      3263      3261      3264      3264      3267      3268      3264      3267      3269
      3264      3267      3270      3265      3264      3266      3265      3264      3267
      3266      3264      3267      3267      3270      3271      3267      3270      3272
      3267      3270      3273      3268      3267      3269      3268      3267      3270
      3269      3267      3270      3270      3273      3274      3270      3273      3275
      3270      3273      3276      3271      3270      3272      3271      3270      3273
      3272      3270      3273      3273      3276      3277      3273      3276      3278
      3273      3276      3279      3274      3273      3275      3274      3273      3276
      3275      3273      3276      3276      3279      3280      3276      3279      3281
      3277      3276      3278      3277      3276      3279      3278      3276      3279
      3279      3281      3282      3279      3281      3283      3280      3279      3281
      3281      3283      3284      3281      3283      3285      3281      3283      3286
      3282      3281      3283      3283      3286      3287      3283      3286      3288
      3283      3286      3289      3284      3283      3285      3284      3283      3286
      3285      3283      3286      3286      3289      3290      3286      3289      3291
      3286      3289      3292      3287      3286      3288      3287      3286      3289
      3288      3286      3289      3289      3292      3293      3289      3292      3294
      3289      3292      3295      3290      3289      3291      3290      3289      3292
      3291      3289      3292      3292      3295      3296      3292      3295      3297
      3292      3295      3298      3293      3292      3294      3293      3292      3295
      3294      3292      3295      3295      3298      3299      3295      3298      3300
      3295      3298      3301      3296      3295      3297      3296      3295      3298
      3297      3295      3298      3298      3301      3302      3298      3301      3303
      3298      3301      3304      3299      3298      3300      3299      3298      3301
      3300      3298      3301      3301      3304      3305      3301      3304      3306
      3301      3304      3307      3302      3301      3303      3302      3301      3304
      3303      3301      3304      3305      3304      3306      3305      3304      3307
      3306      3304      3307      3308      3311      3312      3308      3311      3313
      3308      3311      3314      3309      3308      3310      3309      3308      3311
      3310      3308      3311      3311      3314      3315      3311      3314      3316
      3311      3314      3317      3312      3311      3313      3312      3311      3314
      3313      3311      3314      3314      3317      3318      3314      3317      3319
      3314      3317      3320      3315      3314      3316      3315      3314      3317
      3316      3314      3317      3317      3320      3321      3317      3320      3322
      3317      3320      3323      3318      3317      3319      3318      3317      3320
      3319      3317      3320      3320      3323      3324      3320      3323      3325
      3320      3323      3326      3321      3320      3322      3321      3320      3323
      3322      3320      3323      3323      3326      3327      3323      3326      3328
      3323      3326      3329      3324      3323      3325      3324      3323      3326
      3325      3323      3326      3326      3329      3330      3326      3329      3331
      3326      3329      3332      3327      3326      3328      3327      3326      3329
      3328      3326      3329      3329      3332      3333      3329      3332      3334
      3329      3332      3335      3330      3329      3331      3330      3329      3332
      3331      3329      3332      3332      3335      3336      3332      3335      3337
      3332      3335      3338      3333      3332      3334      3333      3332      3335
      3334      3332      3335      3335      3338      3339      3335      3338      3340
      3335      3338      3341      3336      3335      3337      3336      3335      3338
      3337      3335      3338      3338      3341      3342      3338      3341      3343
      3338      3341      3344      3339      3338      3340      3339      3338      3341
      3340      3338      3341      3341      3344      3345      3341      3344      3346
      3341      3344      3347      3342      3341      3343      3342      3341      3344
      3343      3341      3344      3344      3347      3348      3344      3347      3349
      3344      3347      3350      3345      3344      3346      3345      3344      3347
      3346      3344      3347      3348      3347      3349      3348      3347      3350
      3349      3347      3350      3351      3352      3353      3351      3352      3354
      3351      3352      3367      3351      3355      3356      3351      3355      3357
      3351      3355      3358      3351      3359      3360      3351      3359      3361
      3351      3359      3362      3351      3363      3364      3351      3363      3365
      3351      3363      3366      3352      3351      3355      3352      3351      3359
      3352      3351      3363      3352      3367      3368      3352      3367      3369
      3352      3367      3373      3353      3352      3354      3353      3352      3367
      3354      3352      3367      3355      3351      3359      3355      3351      3363
      3356      3355      3357      3356      3355      3358      3357      3355      3358
      3359      3351      3363      3360      3359      3361      3360      3359      3362
      3361      3359      3362      3364      3363      3365      3364      3363      3366
      3365      3363      3366      3367      3373      3370      3368      3367      3369
      3368      3367      3373      3369      3367      3373      3370      3374      3375
      3371      3370      3372      3371      3370      3373      3371      3370      3374
      3372      3370      3373      3372      3370      3374      3373      3370      3374
      3374      3375      3376      3374      3375      3377      3374      3375      3378
      3375      3378      3379      3375      3378      3380      3375      3378      3386
      3376      3375      3377      3376      3375      3378      3377      3375      3378
      3378      3380      3381      3378      3386      3387      3378      3386      3388
      3378      3386      3389      3379      3378      3380      3379      3378      3386
      3380      3378      3386      3380      3381      3382      3380      3381      3383
      3381      3383      3384      3381      3383      3385      3381      3383      3395
      3382      3381      3383      3383      3395      3396      3383      3395      3397
      3383      3395      3398      3384      3383      3385      3384      3383      3395
      3385      3383      3395      3386      3389      3390      3387      3386      3388
      3387      3386      3389      3388      3386      3389      3389      3390      3391
      3389      3390      3392      3390      3392      3393      3390      3392      3394
      3390      3392      3442      3391      3390      3392      3392      3442      3443
      3392      3442      3444      3392      3442      3445      3393      3392      3394
      3393      3392      3442      3394      3392      3442      3395      3398      3399
      3395      3398      3400      3395      3398      3401      3396      3395      3397
      3396      3395      3398      3397      3395      3398      3398      3401      3402
      3398      3401      3403      3398      3401      3404      3399      3398      3400
      3399      3398      3401      3400      3398      3401      3401      3404      3405
      3401      3404      3406      3401      3404      3407      3402      3401      3403
      3402      3401      3404      3403      3401      3404      3404      3407      3408
      3404      3407      3409      3404      3407      3410      3405      3404      3406
      3405      3404      3407      3406      3404      3407      3407      3410      3411
      3407      3410      3412      3407      3410      3413      3408      3407      3409
      3408      3407      3410      3409      3407      3410      3410      3413      3414
      3410      3413      3415      3411      3410      3412      3411      3410      3413
      3412      3410      3413      3413      3415      3416      3413      3415      3417
      3414      3413      3415      3415      3417      3418      3415      3417      3419
      3415      3417      3420      3416      3415      3417      3417      3420      3421
      3417      3420      3422      3417      3420      3423      3418      3417      3419
      3418      3417      3420      3419      3417      3420      3420      3423      3424
      3420      3423      3425      3420      3423      3426      3421      3420      3422
      3421      3420      3423      3422      3420      3423      3423      3426      3427
      3423      3426      3428      3423      3426      3429      3424      3423      3425
      3424      3423      3426      3425      3423      3426      3426      3429      3430
      3426      3429      3431      3426      3429      3432      3427      3426      3428
      3427      3426      3429      3428      3426      3429      3429      3432      3433
      3429      3432      3434      3429      3432      3435      3430      3429      3431
      3430      3429      3432      3431      3429      3432      3432      3435      3436
      3432      3435      3437      3432      3435      3438      3433      3432      3434
      3433      3432      3435      3434      3432      3435      3435      3438      3439
      3435      3438      3440      3435      3438      3441      3436      3435      3437
      3436      3435      3438      3437      3435      3438      3439      3438      3440
      3439      3438      3441      3440      3438      3441      3442      3445      3446
      3442      3445      3447      3442      3445      3448      3443      3442      3444
      3443      3442      3445      3444      3442      3445      3445      3448      3449
      3445      3448      3450      3445      3448      3451      3446      3445      3447
      3446      3445      3448      3447      3445      3448      3448      3451      3452
      3448      3451      3453      3448      3451      3454      3449      3448      3450
      3449      3448      3451      3450      3448      3451      3451      3454      3455
      3451      3454      3456      3451      3454      3457      3452      3451      3453
      3452      3451      3454      3453      3451      3454      3454      3457      3458
      3454      3457      3459      3454      3457      3460      3455      3454      3456
      3455      3454      3457      3456      3454      3457      3457      3460      3461
      3457      3460      3462      3457      3460      3463      3458      3457      3459
      3458      3457      3460      3459      3457      3460      3460      3463      3464
      3460      3463      3465      3460      3463      3466      3461      3460      3462
      3461      3460      3463      3462      3460      3463      3463      3466      3467
      3463      3466      3468      3463      3466      3469      3464      3463      3465
      3464      3463      3466      3465      3463      3466      3466      3469      3470
      3466      3469      3471      3466      3469      3472      3467      3466      3468
      3467      3466      3469      3468      3466      3469      3469      3472      3473
      3469      3472      3474      3469      3472      3475      3470      3469      3471
      3470      3469      3472      3471      3469      3472      3472      3475      3476
      3472      3475      3477      3472      3475      3478      3473      3472      3474
      3473      3472      3475      3474      3472      3475      3475      3478      3479
      3475      3478      3480      3475      3478      3481      3476      3475      3477
      3476      3475      3478      3477      3475      3478      3478      3481      3482
      3478      3481      3483      3478      3481      3484      3479      3478      3480
      3479      3478      3481      3480      3478      3481      3482      3481      3483
      3482      3481      3484      3483      3481      3484      3485      3486      3487
      3485      3486      3488      3485      3486      3501      3485      3489      3490
      3485      3489      3491      3485      3489      3492      3485      3493      3494
      3485      3493      3495      3485      3493      3496      3485      3497      3498
      3485      3497      3499      3485      3497      3500      3486      3485      3489
      3486      3485      3493      3486      3485      3497      3486      3501      3502
      3486      3501      3503      3486      3501      3507      3487      3486      3488
      3487      3486      3501      3488      3486      3501      3489      3485      3493
      3489      3485      3497      3490      3489      3491      3490      3489      3492
      3491      3489      3492      3493      3485      3497      3494      3493      3495
      3494      3493      3496      3495      3493      3496      3498      3497      3499
      3498      3497      3500      3499      3497      3500      3501      3507      3504
      3502      3501      3503      3502      3501      3507      3503      3501      3507
      3504      3508      3509      3505      3504      3506      3505      3504      3507
      3505      3504      3508      3506      3504      3507      3506      3504      3508
      3507      3504      3508      3508      3509      3510      3508      3509      3511
      3508      3509      3512      3509      3512      3513      3509      3512      3514
      3509      3512      3520      3510      3509      3511      3510      3509      3512
      3511      3509      3512      3512      3514      3515      3512      3520      3521
      3512      3520      3522      3512      3520      3523      3513      3512      3514
      3513      3512      3520      3514      3512      3520      3514      3515      3516
      3514      3515      3517      3515      3517      3518      3515      3517      3519
      3515      3517      3529      3516      3515      3517      3517      3529      3530
      3517      3529      3531      3517      3529      3532      3518      3517      3519
      3518      3517      3529      3519      3517      3529      3520      3523      3524
      3521      3520      3522      3521      3520      3523      3522      3520      3523
      3523      3524      3525      3523      3524      3526      3524      3526      3527
      3524      3526      3528      3524      3526      3576      3525      3524      3526
      3526      3576      3577      3526      3576      3578      3526      3576      3579
      3527      3526      3528      3527      3526      3576      3528      3526      3576
      3529      3532      3533      3529      3532      3534      3529      3532      3535
      3530      3529      3531      3530      3529      3532      3531      3529      3532
      3532      3535      3536      3532      3535      3537      3532      3535      3538
      3533      3532      3534      3533      3532      3535      3534      3532      3535
      3535      3538      3539      3535      3538      3540      3535      3538      3541
      3536      3535      3537      3536      3535      3538      3537      3535      3538
      3538      3541      3542      3538      3541      3543      3538      3541      3544
      3539      3538      3540      3539      3538      3541      3540      3538      3541
      3541      3544      3545      3541      3544      3546      3541      3544      3547
      3542      3541      3543      3542      3541      3544      3543      3541      3544
      3544      3547      3548      3544      3547      3549      3545      3544      3546
      3545      3544      3547      3546      3544      3547      3547      3549      3550
      3547      3549      3551      3548      3547      3549      3549      3551      3552
      3549      3551      3553      3549      3551      3554      3550      3549      3551
      3551      3554      3555      3551      3554      3556      3551      3554      3557
      3552      3551      3553      3552      3551      3554      3553      3551      3554
      3554      3557      3558      3554      3557      3559      3554      3557      3560
      3555      3554      3556      3555      3554      3557      3556      3554      3557
      3557      3560      3561      3557      3560      3562      3557      3560      3563
      3558      3557      3559      3558      3557      3560      3559      3557      3560
      3560      3563      3564      3560      3563      3565      3560      3563      3566
      3561      3560      3562      3561      3560      3563      3562      3560      3563
      3563      3566      3567      3563      3566      3568      3563      3566      3569
      3564      3563      3565      3564      3563      3566      3565      3563      3566
      3566      3569      3570      3566      3569      3571      3566      3569      3572
      3567      3566      3568      3567      3566      3569      3568      3566      3569
      3569      3572      3573      3569      3572      3574      3569      3572      3575
      3570      3569      3571      3570      3569      3572      3571      3569      3572
      3573      3572      3574      3573      3572      3575      3574      3572      3575
      3576      3579      3580      3576      3579      3581      3576      3579      3582
      3577      3576      3578      3577      3576      3579      3578      3576      3579
      3579      3582      3583      3579      3582      3584      3579      3582      3585
      3580      3579      3581      3580      3579      3582      3581      3579      3582
      3582      3585      3586      3582      3585      3587      3582      3585      3588
      3583      3582      3584      3583      3582      3585      3584      3582      3585
      3585      3588      3589      3585      3588      3590      3585      3588      3591
      3586      3585      3587      3586      3585      3588      3587      3585      3588
      3588      3591      3592      3588      3591      3593      3588      3591      3594
      3589      3588      3590      3589      3588      3591      3590      3588      3591
      3591      3594      3595      3591      3594      3596      3591      3594      3597
      3592      3591      3593      3592      3591      3594      3593      3591      3594
      3594      3597      3598      3594      3597      3599      3594      3597      3600
      3595      3594      3596      3595      3594      3597      3596      3594      3597
      3597      3600      3601      3597      3600      3602      3597      3600      3603
      3598      3597      3599      3598      3597      3600      3599      3597      3600
      3600      3603      3604      3600      3603      3605      3600      3603      3606
      3601      3600      3602      3601      3600      3603      3602      3600      3603
      3603      3606      3607      3603      3606      3608      3603      3606      3609
      3604      3603      3605      3604      3603      3606      3605      3603      3606
      3606      3609      3610      3606      3609      3611      3606      3609      3612
      3607      3606      3608      3607      3606      3609      3608      3606      3609
      3609      3612      3613      3609      3612      3614      3609      3612      3615
      3610      3609      3611      3610      3609      3612      3611      3609      3612
      3612      3615      3616      3612      3615      3617      3612      3615      3618
      3613      3612      3614      3613      3612      3615      3614      3612      3615
      3616      3615      3617      3616      3615      3618      3617      3615      3618
      3619      3620      3621      3619      3620      3622      3619      3620      3635
      3619      3623      3624      3619      3623      3625      3619      3623      3626
      3619      3627      3628      3619      3627      3629      3619      3627      3630
      3619      3631      3632      3619      3631      3633      3619      3631      3634
      3620      3619      3623      3620      3619      3627      3620      3619      3631
      3620      3635      3636      3620      3635      3637      3620      3635      3641
      3621      3620      3622      3621      3620      3635      3622      3620      3635
      3623      3619      3627      3623      3619      3631      3624      3623      3625
      3624      3623      3626      3625      3623      3626      3627      3619      3631
      3628      3627      3629      3628      3627      3630      3629      3627      3630
      3632      3631      3633      3632      3631      3634      3633      3631      3634
      3635      3641      3638      3636      3635      3637      3636      3635      3641
      3637      3635      3641      3638      3642      3643      3639      3638      3640
      3639      3638      3641      3639      3638      3642      3640      3638      3641
      3640      3638      3642      3641      3638      3642      3642      3643      3644
      3642      3643      3645      3642      3643      3646      3643      3646      3647
      3643      3646      3648      3643      3646      3654      3644      3643      3645
      3644      3643      3646      3645      3643      3646      3646      3648      3649
      3646      3654      3655      3646      3654      3656      3646      3654      3657
      3647      3646      3648      3647      3646      3654      3648      3646      3654
      3648      3649      3650      3648      3649      3651      3649      3651      3652
      3649      3651      3653      3649      3651      3663      3650      3649      3651
      3651      3663      3664      3651      3663      3665      3651      3663      3666
      3652      3651      3653      3652      3651      3663      3653      3651      3663
      3654      3657      3658      3655      3654      3656      3655      3654      3657
      3656      3654      3657      3657      3658      3659      3657      3658      3660
      3658      3660      3661      3658      3660      3662      3658      3660      3710
      3659      3658      3660      3660      3710      3711      3660      3710      3712
      3660      3710      3713      3661      3660      3662      3661      3660      3710
      3662      3660      3710      3663      3666      3667      3663      3666      3668
      3663      3666      3669      3664      3663      3665      3664      3663      3666
      3665      3663      3666      3666      3669      3670      3666      3669      3671
      3666      3669      3672      3667      3666      3668      3667      3666      3669
      3668      3666      3669      3669      3672      3673      3669      3672      3674
      3669      3672      3675      3670      3669      3671      3670      3669      3672
      3671      3669      3672      3672      3675      3676      3672      3675      3677
      3672      3675      3678      3673      3672      3674      3673      3672      3675
      3674      3672      3675      3675      3678      3679      3675      3678      3680
      3675      3678      3681      3676      3675      3677      3676      3675      3678
      3677      3675      3678      3678      3681      3682      3678      3681      3683
      3679      3678      3680      3679      3678      3681      3680      3678      3681
      3681      3683      3684      3681      3683      3685      3682      3681      3683
      3683      3685      3686      3683      3685      3687      3683      3685      3688
      3684      3683      3685      3685      3688      3689      3685      3688      3690
      3685      3688      3691      3686      3685      3687      3686      3685      3688
      3687      3685      3688      3688      3691      3692      3688      3691      3693
      3688      3691      3694      3689      3688      3690      3689      3688      3691
      3690      3688      3691      3691      3694      3695      3691      3694      3696
      3691      3694      3697      3692      3691      3693      3692      3691      3694
      3693      3691      3694      3694      3697      3698      3694      3697      3699
      3694      3697      3700      3695      3694      3696      3695      3694      3697
      3696      3694      3697      3697      3700      3701      3697      3700      3702
      3697      3700      3703      3698      3697      3699      3698      3697      3700
      3699      3697      3700      3700      3703      3704      3700      3703      3705
      3700      3703      3706      3701      3700      3702      3701      3700      3703
      3702      3700      3703      3703      3706      3707      3703      3706      3708
      3703      3706      3709      3704      3703      3705      3704      3703      3706
      3705      3703      3706      3707      3706      3708      3707      3706      3709
      3708      3706      3709      3710      3713      3714      3710      3713      3715
      3710      3713      3716      3711      3710      3712      3711      3710      3713
      3712      3710      3713      3713      3716      3717      3713      3716      3718
      3713      3716      3719      3714      3713      3715      3714      3713      3716
      3715      3713      3716      3716      3719      3720      3716      3719      3721
      3716      3719      3722      3717      3716      3718      3717      3716      3719
      3718      3716      3719      3719      3722      3723      3719      3722      3724
      3719      3722      3725      3720      3719      3721      3720      3719      3722
      3721      3719      3722      3722      3725      3726      3722      3725      3727
      3722      3725      3728      3723      3722      3724      3723      3722      3725
      3724      3722      3725      3725      3728      3729      3725      3728      3730
      3725      3728      3731      3726      3725      3727      3726      3725      3728
      3727      3725      3728      3728      3731      3732      3728      3731      3733
      3728      3731      3734      3729      3728      3730      3729      3728      3731
      3730      3728      3731      3731      3734      3735      3731      3734      3736
      3731      3734      3737      3732      3731      3733      3732      3731      3734
      3733      3731      3734      3734      3737      3738      3734      3737      3739
      3734      3737      3740      3735      3734      3736      3735      3734      3737
      3736      3734      3737      3737      3740      3741      3737      3740      3742
      3737      3740      3743      3738      3737      3739      3738      3737      3740
      3739      3737      3740      3740      3743      3744      3740      3743      3745
      3740      3743      3746      3741      3740      3742      3741      3740      3743
      3742      3740      3743      3743      3746      3747      3743      3746      3748
      3743      3746      3749      3744      3743      3745      3744      3743      3746
      3745      3743      3746      3746      3749      3750      3746      3749      3751
      3746      3749      3752      3747      3746      3748      3747      3746      3749
      3748      3746      3749      3750      3749      3751      3750      3749      3752
      3751      3749      3752      3753      3754      3755      3753      3754      3756
      3753      3754      3769      3753      3757      3758      3753      3757      3759
      3753      3757      3760      3753      3761      3762      3753      3761      3763
      3753      3761      3764      3753      3765      3766      3753      3765      3767
      3753      3765      3768      3754      3753      3757      3754      3753      3761
      3754      3753      3765      3754      3769      3770      3754      3769      3771
      3754      3769      3775      3755      3754      3756      3755      3754      3769
      3756      3754      3769      3757      3753      3761      3757      3753      3765
      3758      3757      3759      3758      3757      3760      3759      3757      3760
      3761      3753      3765      3762      3761      3763      3762      3761      3764
      3763      3761      3764      3766      3765      3767      3766      3765      3768
      3767      3765      3768      3769      3775      3772      3770      3769      3771
      3770      3769      3775      3771      3769      3775      3772      3776      3777
      3773      3772      3774      3773      3772      3775      3773      3772      3776
      3774      3772      3775      3774      3772      3776      3775      3772      3776
      3776      3777      3778      3776      3777      3779      3776      3777      3780
      3777      3780      3781      3777      3780      3782      3777      3780      3788
      3778      3777      3779      3778      3777      3780      3779      3777      3780
      3780      3782      3783      3780      3788      3789      3780      3788      3790
      3780      3788      3791      3781      3780      3782      3781      3780      3788
      3782      3780      3788      3782      3783      3784      3782      3783      3785
      3783      3785      3786      3783      3785      3787      3783      3785      3797
      3784      3783      3785      3785      3797      3798      3785      3797      3799
      3785      3797      3800      3786      3785      3787      3786      3785      3797
      3787      3785      3797      3788      3791      3792      3789      3788      3790
      3789      3788      3791      3790      3788      3791      3791      3792      3793
      3791      3792      3794      3792      3794      3795      3792      3794      3796
      3792      3794      3844      3793      3792      3794      3794      3844      3845
      3794      3844      3846      3794      3844      3847      3795      3794      3796
      3795      3794      3844      3796      3794      3844      3797      3800      3801
      3797      3800      3802      3797      3800      3803      3798      3797      3799
      3798      3797      3800      3799      3797      3800      3800      3803      3804
      3800      3803      3805      3800      3803      3806      3801      3800      3802
      3801      3800      3803      3802      3800      3803      3803      3806      3807
      3803      3806      3808      3803      3806      3809      3804      3803      3805
      3804      3803      3806      3805      3803      3806      3806      3809      3810
      3806      3809      3811      3806      3809      3812      3807      3806      3808
      3807      3806      3809      3808      3806      3809      3809      3812      3813
      3809      3812      3814      3809      3812      3815      3810      3809      3811
      3810      3809      3812      3811      3809      3812      3812      3815      3816
      3812      3815      3817      3813      3812      3814      3813      3812      3815
      3814      3812      3815      3815      3817      3818      3815      3817      3819
      3816      3815      3817      3817      3819      3820      3817      3819      3821
      3817      3819      3822      3818      3817      3819      3819      3822      3823
      3819      3822      3824      3819      3822      3825      3820      3819      3821
      3820      3819      3822      3821      3819      3822      3822      3825      3826
      3822      3825      3827      3822      3825      3828      3823      3822      3824
      3823      3822      3825      3824      3822      3825      3825      3828      3829
      3825      3828      3830      3825      3828      3831      3826      3825      3827
      3826      3825      3828      3827      3825      3828      3828      3831      3832
      3828      3831      3833      3828      3831      3834      3829      3828      3830
      3829      3828      3831      3830      3828      3831      3831      3834      3835
      3831      3834      3836      3831      3834      3837      3832      3831      3833
      3832      3831      3834      3833      3831      3834      3834      3837      3838
      3834      3837      3839      3834      3837      3840      3835      3834      3836
      3835      3834      3837      3836      3834      3837      3837      3840      3841
      3837      3840      3842      3837      3840      3843      3838      3837      3839
      3838      3837      3840      3839      3837      3840      3841      3840      3842
      3841      3840      3843      3842      3840      3843      3844      3847      3848
      3844      3847      3849      3844      3847      3850      3845      3844      3846
      3845      3844      3847      3846      3844      3847      3847      3850      3851
      3847      3850      3852      3847      3850      3853      3848      3847      3849
      3848      3847      3850      3849      3847      3850      3850      3853      3854
      3850      3853      3855      3850      3853      3856      3851      3850      3852
      3851      3850      3853      3852      3850      3853      3853      3856      3857
      3853      3856      3858      3853      3856      3859      3854      3853      3855
      3854      3853      3856      3855      3853      3856      3856      3859      3860
      3856      3859      3861      3856      3859      3862      3857      3856      3858
      3857      3856      3859      3858      3856      3859      3859      3862      3863
      3859      3862      3864      3859      3862      3865      3860      3859      3861
      3860      3859      3862      3861      3859      3862      3862      3865      3866
      3862      3865      3867      3862      3865      3868      3863      3862      3864
      3863      3862      3865      3864      3862      3865      3865      3868      3869
      3865      3868      3870      3865      3868      3871      3866      3865      3867
      3866      3865      3868      3867      3865      3868      3868      3871      3872
      3868      3871      3873      3868      3871      3874      3869      3868      3870
      3869      3868      3871      3870      3868      3871      3871      3874      3875
      3871      3874      3876      3871      3874      3877      3872      3871      3873
      3872      3871      3874      3873      3871      3874      3874      3877      3878
      3874      3877      3879      3874      3877      3880      3875      3874      3876
      3875      3874      3877      3876      3874      3877      3877      3880      3881
      3877      3880      3882      3877      3880      3883      3878      3877      3879
      3878      3877      3880      3879      3877      3880      3880      3883      3884
      3880      3883      3885      3880      3883      3886      3881      3880      3882
      3881      3880      3883      3882      3880      3883      3884      3883      3885
      3884      3883      3886      3885      3883      3886      3887      3888      3889
      3887      3888      3890      3887      3888      3903      3887      3891      3892
      3887      3891      3893      3887      3891      3894      3887      3895      3896
      3887      3895      3897      3887      3895      3898      3887      3899      3900
      3887      3899      3901      3887      3899      3902      3888      3887      3891
      3888      3887      3895      3888      3887      3899      3888      3903      3904
      3888      3903      3905      3888      3903      3909      3889      3888      3890
      3889      3888      3903      3890      3888      3903      3891      3887      3895
      3891      3887      3899      3892      3891      3893      3892      3891      3894
      3893      3891      3894      3895      3887      3899      3896      3895      3897
      3896      3895      3898      3897      3895      3898      3900      3899      3901
      3900      3899      3902      3901      3899      3902      3903      3909      3906
      3904      3903      3905      3904      3903      3909      3905      3903      3909
      3906      3910      3911      3907      3906      3908      3907      3906      3909
      3907      3906      3910      3908      3906      3909      3908      3906      3910
      3909      3906      3910      3910      3911      3912      3910      3911      3913
      3910      3911      3914      3911      3914      3915      3911      3914      3916
      3911      3914      3922      3912      3911      3913      3912      3911      3914
      3913      3911      3914      3914      3916      3917      3914      3922      3923
      3914      3922      3924      3914      3922      3925      3915      3914      3916
      3915      3914      3922      3916      3914      3922      3916      3917      3918
      3916      3917      3919      3917      3919      3920      3917      3919      3921
      3917      3919      3931      3918      3917      3919      3919      3931      3932
      3919      3931      3933      3919      3931      3934      3920      3919      3921
      3920      3919      3931      3921      3919      3931      3922      3925      3926
      3923      3922      3924      3923      3922      3925      3924      3922      3925
      3925      3926      3927      3925      3926      3928      3926      3928      3929
      3926      3928      3930      3926      3928      3978      3927      3926      3928
      3928      3978      3979      3928      3978      3980      3928      3978      3981
      3929      3928      3930      3929      3928      3978      3930      3928      3978
      3931      3934      3935      3931      3934      3936      3931      3934      3937
      3932      3931      3933      3932      3931      3934      3933      3931      3934
      3934      3937      3938      3934      3937      3939      3934      3937      3940
      3935      3934      3936      3935      3934      3937      3936      3934      3937
      3937      3940      3941      3937      3940      3942      3937      3940      3943
      3938      3937      3939      3938      3937      3940      3939      3937      3940
      3940      3943      3944      3940      3943      3945      3940      3943      3946
      3941      3940      3942      3941      3940      3943      3942      3940      3943
      3943      3946      3947      3943      3946      3948      3943      3946      3949
      3944      3943      3945      3944      3943      3946      3945      3943      3946
      3946      3949      3950      3946      3949      3951      3947      3946      3948
      3947      3946      3949      3948      3946      3949      3949      3951      3952
      3949      3951      3953      3950      3949      3951      3951      3953      3954
      3951      3953      3955      3951      3953      3956      3952      3951      3953
      3953      3956      3957      3953      3956      3958      3953      3956      3959
      3954      3953      3955      3954      3953      3956      3955      3953      3956
      3956      3959      3960      3956      3959      3961      3956      3959      3962
      3957      3956      3958      3957      3956      3959      3958      3956      3959
      3959      3962      3963      3959      3962      3964      3959      3962      3965
      3960      3959      3961      3960      3959      3962      3961      3959      3962
      3962      3965      3966      3962      3965      3967      3962      3965      3968
      3963      3962      3964      3963      3962      3965      3964      3962      3965
      3965      3968      3969      3965      3968      3970      3965      3968      3971
      3966      3965      3967      3966      3965      3968      3967      3965      3968
      3968      3971      3972      3968      3971      3973      3968      3971      3974
      3969      3968      3970      3969      3968      3971      3970      3968      3971
      3971      3974      3975      3971      3974      3976      3971      3974      3977
      3972      3971      3973      3972      3971      3974      3973      3971      3974
      3975      3974      3976      3975      3974      3977      3976      3974      3977
      3978      3981      3982      3978      3981      3983      3978      3981      3984
      3979      3978      3980      3979      3978      3981      3980      3978      3981
      3981      3984      3985      3981      3984      3986      3981      3984      3987
      3982      3981      3983      3982      3981      3984      3983      3981      3984
      3984      3987      3988      3984      3987      3989      3984      3987      3990
      3985      3984      3986      3985      3984      3987      3986      3984      3987
      3987      3990      3991      3987      3990      3992      3987      3990      3993
      3988      3987      3989      3988      3987      3990      3989      3987      3990
      3990      3993      3994      3990      3993      3995      3990      3993      3996
      3991      3990      3992      3991      3990      3993      3992      3990      3993
      3993      3996      3997      3993      3996      3998      3993      3996      3999
      3994      3993      3995      3994      3993      3996      3995      3993      3996
      3996      3999      4000      3996      3999      4001      3996      3999      4002
      3997      3996      3998      3997      3996      3999      3998      3996      3999
      3999      4002      4003      3999      4002      4004      3999      4002      4005
      4000      3999      4001      4000      3999      4002      4001      3999      4002
      4002      4005      4006      4002      4005      4007      4002      4005      4008
      4003      4002      4004      4003      4002      4005      4004      4002      4005
      4005      4008      4009      4005      4008      4010      4005      4008      4011
      4006      4005      4007      4006      4005      4008      4007      4005      4008
      4008      4011      4012      4008      4011      4013      4008      4011      4014
      4009      4008      4010      4009      4008      4011      4010      4008      4011
      4011      4014      4015      4011      4014      4016      4011      4014      4017
      4012      4011      4013      4012      4011      4014      4013      4011      4014
      4014      4017      4018      4014      4017      4019      4014      4017      4020
      4015      4014      4016      4015      4014      4017      4016      4014      4017
      4018      4017      4019      4018      4017      4020      4019      4017      4020
      4021      4022      4023      4021      4022      4024      4021      4022      4037
      4021      4025      4026      4021      4025      4027      4021      4025      4028
      4021      4029      4030      4021      4029      4031      4021      4029      4032
      4021      4033      4034      4021      4033      4035      4021      4033      4036
      4022      4021      4025      4022      4021      4029      4022      4021      4033
      4022      4037      4038      4022      4037      4039      4022      4037      4043
      4023      4022      4024      4023      4022      4037      4024      4022      4037
      4025      4021      4029      4025      4021      4033      4026      4025      4027
      4026      4025      4028      4027      4025      4028      4029      4021      4033
      4030      4029      4031      4030      4029      4032      4031      4029      4032
      4034      4033      4035      4034      4033      4036      4035      4033      4036
      4037      4043      4040      4038      4037      4039      4038      4037      4043
      4039      4037      4043      4040      4044      4045      4041      4040      4042
      4041      4040      4043      4041      4040      4044      4042      4040      4043
      4042      4040      4044      4043      4040      4044      4044      4045      4046
      4044      4045      4047      4044      4045      4048      4045      4048      4049
      4045      4048      4050      4045      4048      4056      4046      4045      4047
      4046      4045      4048      4047      4045      4048      4048      4050      4051
      4048      4056      4057      4048      4056      4058      4048      4056      4059
      4049      4048      4050      4049      4048      4056      4050      4048      4056
      4050      4051      4052      4050      4051      4053      4051      4053      4054
      4051      4053      4055      4051      4053      4065      4052      4051      4053
      4053      4065      4066      4053      4065      4067      4053      4065      4068
      4054      4053      4055      4054      4053      4065      4055      4053      4065
      4056      4059      4060      4057      4056      4058      4057      4056      4059
      4058      4056      4059      4059      4060      4061      4059      4060      4062
      4060      4062      4063      4060      4062      4064      4060      4062      4112
      4061      4060      4062      4062      4112      4113      4062      4112      4114
      4062      4112      4115      4063      4062      4064      4063      4062      4112
      4064      4062      4112      4065      4068      4069      4065      4068      4070
      4065      4068      4071      4066      4065      4067      4066      4065      4068
      4067      4065      4068      4068      4071      4072      4068      4071      4073
      4068      4071      4074      4069      4068      4070      4069      4068      4071
      4070      4068      4071      4071      4074      4075      4071      4074      4076
      4071      4074      4077      4072      4071      4073      4072      4071      4074
      4073      4071      4074      4074      4077      4078      4074      4077      4079
      4074      4077      4080      4075      4074      4076      4075      4074      4077
      4076      4074      4077      4077      4080      4081      4077      4080      4082
      4077      4080      4083      4078      4077      4079      4078      4077      4080
      4079      4077      4080      4080      4083      4084      4080      4083      4085
      4081      4080      4082      4081      4080      4083      4082      4080      4083
      4083      4085      4086      4083      4085      4087      4084      4083      4085
      4085      4087      4088      4085      4087      4089      4085      4087      4090
      4086      4085      4087      4087      4090      4091      4087      4090      4092
      4087      4090      4093      4088      4087      4089      4088      4087      4090
      4089      4087      4090      4090      4093      4094      4090      4093      4095
      4090      4093      4096      4091      4090      4092      4091      4090      4093
      4092      4090      4093      4093      4096      4097      4093      4096      4098
      4093      4096      4099      4094      4093      4095      4094      4093      4096
      4095      4093      4096      4096      4099      4100      4096      4099      4101
      4096      4099      4102      4097      4096      4098      4097      4096      4099
      4098      4096      4099      4099      4102      4103      4099      4102      4104
      4099      4102      4105      4100      4099      4101      4100      4099      4102
      4101      4099      4102      4102      4105      4106      4102      4105      4107
      4102      4105      4108      4103      4102      4104      4103      4102      4105
      4104      4102      4105      4105      4108      4109      4105      4108      4110
      4105      4108      4111      4106      4105      4107      4106      4105      4108
      4107      4105      4108      4109      4108      4110      4109      4108      4111
      4110      4108      4111      4112      4115      4116      4112      4115      4117
      4112      4115      4118      4113      4112      4114      4113      4112      4115
      4114      4112      4115      4115      4118      4119      4115      4118      4120
      4115      4118      4121      4116      4115      4117      4116      4115      4118
      4117      4115      4118      4118      4121      4122      4118      4121      4123
      4118      4121      4124      4119      4118      4120      4119      4118      4121
      4120      4118      4121      4121      4124      4125      4121      4124      4126
      4121      4124      4127      4122      4121      4123      4122      4121      4124
      4123      4121      4124      4124      4127      4128      4124      4127      4129
      4124      4127      4130      4125      4124      4126      4125      4124      4127
      4126      4124      4127      4127      4130      4131      4127      4130      4132
      4127      4130      4133      4128      4127      4129      4128      4127      4130
      4129      4127      4130      4130      4133      4134      4130      4133      4135
      4130      4133      4136      4131      4130      4132      4131      4130      4133
      4132      4130      4133      4133      4136      4137      4133      4136      4138
      4133      4136      4139      4134      4133      4135      4134      4133      4136
      4135      4133      4136      4136      4139      4140      4136      4139      4141
      4136      4139      4142      4137      4136      4138      4137      4136      4139
      4138      4136      4139      4139      4142      4143      4139      4142      4144
      4139      4142      4145      4140      4139      4141      4140      4139      4142
      4141      4139      4142      4142      4145      4146      4142      4145      4147
      4142      4145      4148      4143      4142      4144      4143      4142      4145
      4144      4142      4145      4145      4148      4149      4145      4148      4150
      4145      4148      4151      4146      4145      4147      4146      4145      4148
      4147      4145      4148      4148      4151      4152      4148      4151      4153
      4148      4151      4154      4149      4148      4150      4149      4148      4151
      4150      4148      4151      4152      4151      4153      4152      4151      4154
      4153      4151      4154      4155      4156      4157      4155      4156      4158
      4155      4156      4171      4155      4159      4160      4155      4159      4161
      4155      4159      4162      4155      4163      4164      4155      4163      4165
      4155      4163      4166      4155      4167      4168      4155      4167      4169
      4155      4167      4170      4156      4155      4159      4156      4155      4163
      4156      4155      4167      4156      4171      4172      4156      4171      4173
      4156      4171      4177      4157      4156      4158      4157      4156      4171
      4158      4156      4171      4159      4155      4163      4159      4155      4167
      4160      4159      4161      4160      4159      4162      4161      4159      4162
      4163      4155      4167      4164      4163      4165      4164      4163      4166
      4165      4163      4166      4168      4167      4169      4168      4167      4170
      4169      4167      4170      4171      4177      4174      4172      4171      4173
      4172      4171      4177      4173      4171      4177      4174      4178      4179
      4175      4174      4176      4175      4174      4177      4175      4174      4178
      4176      4174      4177      4176      4174      4178      4177      4174      4178
      4178      4179      4180      4178      4179      4181      4178      4179      4182
      4179      4182      4183      4179      4182      4184      4179      4182      4190
      4180      4179      4181      4180      4179      4182      4181      4179      4182
      4182      4184      4185      4182      4190      4191      4182      4190      4192
      4182      4190      4193      4183      4182      4184      4183      4182      4190
      4184      4182      4190      4184      4185      4186      4184      4185      4187
      4185      4187      4188      4185      4187      4189      4185      4187      4199
      4186      4185      4187      4187      4199      4200      4187      4199      4201
      4187      4199      4202      4188      4187      4189      4188      4187      4199
      4189      4187      4199      4190      4193      4194      4191      4190      4192
      4191      4190      4193      4192      4190      4193      4193      4194      4195
      4193      4194      4196      4194      4196      4197      4194      4196      4198
      4194      4196      4246      4195      4194      4196      4196      4246      4247
      4196      4246      4248      4196      4246      4249      4197      4196      4198
      4197      4196      4246      4198      4196      4246      4199      4202      4203
      4199      4202      4204      4199      4202      4205      4200      4199      4201
      4200      4199      4202      4201      4199      4202      4202      4205      4206
      4202      4205      4207      4202      4205      4208      4203      4202      4204
      4203      4202      4205      4204      4202      4205      4205      4208      4209
      4205      4208      4210      4205      4208      4211      4206      4205      4207
      4206      4205      4208      4207      4205      4208      4208      4211      4212
      4208      4211      4213      4208      4211      4214      4209      4208      4210
      4209      4208      4211      4210      4208      4211      4211      4214      4215
      4211      4214      4216      4211      4214      4217      4212      4211      4213
      4212      4211      4214      4213      4211      4214      4214      4217      4218
      4214      4217      4219      4215      4214      4216      4215      4214      4217
      4216      4214      4217      4217      4219      4220      4217      4219      4221
      4218      4217      4219      4219      4221      4222      4219      4221      4223
      4219      4221      4224      4220      4219      4221      4221      4224      4225
      4221      4224      4226      4221      4224      4227      4222      4221      4223
      4222      4221      4224      4223      4221      4224      4224      4227      4228
      4224      4227      4229      4224      4227      4230      4225      4224      4226
      4225      4224      4227      4226      4224      4227      4227      4230      4231
      4227      4230      4232      4227      4230      4233      4228      4227      4229
      4228      4227      4230      4229      4227      4230      4230      4233      4234
      4230      4233      4235      4230      4233      4236      4231      4230      4232
      4231      4230      4233      4232      4230      4233      4233      4236      4237
      4233      4236      4238      4233      4236      4239      4234      4233      4235
      4234      4233      4236      4235      4233      4236      4236      4239      4240
      4236      4239      4241      4236      4239      4242      4237      4236      4238
      4237      4236      4239      4238      4236      4239      4239      4242      4243
      4239      4242      4244      4239      4242      4245      4240      4239      4241
      4240      4239      4242      4241      4239      4242      4243      4242      4244
      4243      4242      4245      4244      4242      4245      4246      4249      4250
      4246      4249      4251      4246      4249      4252      4247      4246      4248
      4247      4246      4249      4248      4246      4249      4249      4252      4253
      4249      4252      4254      4249      4252      4255      4250      4249      4251
      4250      4249      4252      4251      4249      4252      4252      4255      4256
      4252      4255      4257      4252      4255      4258      4253      4252      4254
      4253      4252      4255      4254      4252      4255      4255      4258      4259
      4255      4258      4260      4255      4258      4261      4256      4255      4257
      4256      4255      4258      4257      4255      4258      4258      4261      4262
      4258      4261      4263      4258      4261      4264      4259      4258      4260
      4259      4258      4261      4260      4258      4261      4261      4264      4265
      4261      4264      4266      4261      4264      4267      4262      4261      4263
      4262      4261      4264      4263      4261      4264      4264      4267      4268
      4264      4267      4269      4264      4267      4270      4265      4264      4266
      4265      4264      4267      4266      4264      4267      4267      4270      4271
      4267      4270      4272      4267      4270      4273      4268      4267      4269
      4268      4267      4270      4269      4267      4270      4270      4273      4274
      4270      4273      4275      4270      4273      4276      4271      4270      4272
      4271      4270      4273      4272      4270      4273      4273      4276      4277
      4273      4276      4278      4273      4276      4279      4274      4273      4275
      4274      4273      4276      4275      4273      4276      4276      4279      4280
      4276      4279      4281      4276      4279      4282      4277      4276      4278
      4277      4276      4279      4278      4276      4279      4279      4282      4283
      4279      4282      4284      4279      4282      4285      4280      4279      4281
      4280      4279      4282      4281      4279      4282      4282      4285      4286
      4282      4285      4287      4282      4285      4288      4283      4282      4284
      4283      4282      4285      4284      4282      4285      4286      4285      4287
      4286      4285      4288      4287      4285      4288      4289      4290      4291
      4289      4290      4292      4289      4290      4305      4289      4293      4294
      4289      4293      4295      4289      4293      4296      4289      4297      4298
      4289      4297      4299      4289      4297      4300      4289      4301      4302
      4289      4301      4303      4289      4301      4304      4290      4289      4293
      4290      4289      4297      4290      4289      4301      4290      4305      4306
      4290      4305      4307      4290      4305      4311      4291      4290      4292
      4291      4290      4305      4292      4290      4305      4293      4289      4297
      4293      4289      4301      4294      4293      4295      4294      4293      4296
      4295      4293      4296      4297      4289      4301      4298      4297      4299
      4298      4297      4300      4299      4297      4300      4302      4301      4303
      4302      4301      4304      4303      4301      4304      4305      4311      4308
      4306      4305      4307      4306      4305      4311      4307      4305      4311
      4308      4312      4313      4309      4308      4310      4309      4308      4311
      4309      4308      4312      4310      4308      4311      4310      4308      4312
      4311      4308      4312      4312      4313      4314      4312      4313      4315
      4312      4313      4316      4313      4316      4317      4313      4316      4318
      4313      4316      4324      4314      4313      4315      4314      4313      4316
      4315      4313      4316      4316      4318      4319      4316      4324      4325
      4316      4324      4326      4316      4324      4327      4317      4316      4318
      4317      4316      4324      4318      4316      4324      4318      4319      4320
      4318      4319      4321      4319      4321      4322      4319      4321      4323
      4319      4321      4333      4320      4319      4321      4321      4333      4334
      4321      4333      4335      4321      4333      4336      4322      4321      4323
      4322      4321      4333      4323      4321      4333      4324      4327      4328
      4325      4324      4326      4325      4324      4327      4326      4324      4327
      4327      4328      4329      4327      4328      4330      4328      4330      4331
      4328      4330      4332      4328      4330      4380      4329      4328      4330
      4330      4380      4381      4330      4380      4382      4330      4380      4383
      4331      4330      4332      4331      4330      4380      4332      4330      4380
      4333      4336      4337      4333      4336      4338      4333      4336      4339
      4334      4333      4335      4334      4333      4336      4335      4333      4336
      4336      4339      4340      4336      4339      4341      4336      4339      4342
      4337      4336      4338      4337      4336      4339      4338      4336      4339
      4339      4342      4343      4339      4342      4344      4339      4342      4345
      4340      4339      4341      4340      4339      4342      4341      4339      4342
      4342      4345      4346      4342      4345      4347      4342      4345      4348
      4343      4342      4344      4343      4342      4345      4344      4342      4345
      4345      4348      4349      4345      4348      4350      4345      4348      4351
      4346      4345      4347      4346      4345      4348      4347      4345      4348
      4348      4351      4352      4348      4351      4353      4349      4348      4350
      4349      4348      4351      4350      4348      4351      4351      4353      4354
      4351      4353      4355      4352      4351      4353      4353      4355      4356
      4353      4355      4357      4353      4355      4358      4354      4353      4355
      4355      4358      4359      4355      4358      4360      4355      4358      4361
      4356      4355      4357      4356      4355      4358      4357      4355      4358
      4358      4361      4362      4358      4361      4363      4358      4361      4364
      4359      4358      4360      4359      4358      4361      4360      4358      4361
      4361      4364      4365      4361      4364      4366      4361      4364      4367
      4362      4361      4363      4362      4361      4364      4363      4361      4364
      4364      4367      4368      4364      4367      4369      4364      4367      4370
      4365      4364      4366      4365      4364      4367      4366      4364      4367
      4367      4370      4371      4367      4370      4372      4367      4370      4373
      4368      4367      4369      4368      4367      4370      4369      4367      4370
      4370      4373      4374      4370      4373      4375      4370      4373      4376
      4371      4370      4372      4371      4370      4373      4372      4370      4373
      4373      4376      4377      4373      4376      4378      4373      4376      4379
      4374      4373      4375      4374      4373      4376      4375      4373      4376
      4377      4376      4378      4377      4376      4379      4378      4376      4379
      4380      4383      4384      4380      4383      4385      4380      4383      4386
      4381      4380      4382      4381      4380      4383      4382      4380      4383
      4383      4386      4387      4383      4386      4388      4383      4386      4389
      4384      4383      4385      4384      4383      4386      4385      4383      4386
      4386      4389      4390      4386      4389      4391      4386      4389      4392
      4387      4386      4388      4387      4386      4389      4388      4386      4389
      4389      4392      4393      4389      4392      4394      4389      4392      4395
      4390      4389      4391      4390      4389      4392      4391      4389      4392
      4392      4395      4396      4392      4395      4397      4392      4395      4398
      4393      4392      4394      4393      4392      4395      4394      4392      4395
      4395      4398      4399      4395      4398      4400      4395      4398      4401
      4396      4395      4397      4396      4395      4398      4397      4395      4398
      4398      4401      4402      4398      4401      4403      4398      4401      4404
      4399      4398      4400      4399      4398      4401      4400      4398      4401
      4401      4404      4405      4401      4404      4406      4401      4404      4407
      4402      4401      4403      4402      4401      4404      4403      4401      4404
      4404      4407      4408      4404      4407      4409      4404      4407      4410
      4405      4404      4406      4405      4404      4407      4406      4404      4407
      4407      4410      4411      4407      4410      4412      4407      4410      4413
      4408      4407      4409      4408      4407      4410      4409      4407      4410
      4410      4413      4414      4410      4413      4415      4410      4413      4416
      4411      4410      4412      4411      4410      4413      4412      4410      4413
      4413      4416      4417      4413      4416      4418      4413      4416      4419
      4414      4413      4415      4414      4413      4416      4415      4413      4416
      4416      4419      4420      4416      4419      4421      4416      4419      4422
      4417      4416      4418      4417      4416      4419      4418      4416      4419
      4420      4419      4421      4420      4419      4422      4421      4419      4422
      4423      4424      4425      4423      4424      4426      4423      4424      4439
      4423      4427      4428      4423      4427      4429      4423      4427      4430
      4423      4431      4432      4423      4431      4433      4423      4431      4434
      4423      4435      4436      4423      4435      4437      4423      4435      4438
      4424      4423      4427      4424      4423      4431      4424      4423      4435
      4424      4439      4440      4424      4439      4441      4424      4439      4445
      4425      4424      4426      4425      4424      4439      4426      4424      4439
      4427      4423      4431      4427      4423      4435      4428      4427      4429
      4428      4427      4430      4429      4427      4430      4431      4423      4435
      4432      4431      4433      4432      4431      4434      4433      4431      4434
      4436      4435      4437      4436      4435      4438      4437      4435      4438
      4439      4445      4442      4440      4439      4441      4440      4439      4445
      4441      4439      4445      4442      4446      4447      4443      4442      4444
      4443      4442      4445      4443      4442      4446      4444      4442      4445
      4444      4442      4446      4445      4442      4446      4446      4447      4448
      4446      4447      4449      4446      4447      4450      4447      4450      4451
      4447      4450      4452      4447      4450      4458      4448      4447      4449
      4448      4447      4450      4449      4447      4450      4450      4452      4453
      4450      4458      4459      4450      4458      4460      4450      4458      4461
      4451      4450      4452      4451      4450      4458      4452      4450      4458
      4452      4453      4454      4452      4453      4455      4453      4455      4456
      4453      4455      4457      4453      4455      4467      4454      4453      4455
      4455      4467      4468      4455      4467      4469      4455      4467      4470
      4456      4455      4457      4456      4455      4467      4457      4455      4467
      4458      4461      4462      4459      4458      4460      4459      4458      4461
      4460      4458      4461      4461      4462      4463      4461      4462      4464
      4462      4464      4465      4462      4464      4466      4462      4464      4514
      4463      4462      4464      4464      4514      4515      4464      4514      4516
      4464      4514      4517      4465      4464      4466      4465      4464      4514
      4466      4464      4514      4467      4470      4471      4467      4470      4472
      4467      4470      4473      4468      4467      4469      4468      4467      4470
      4469      4467      4470      4470      4473      4474      4470      4473      4475
      4470      4473      4476      4471      4470      4472      4471      4470      4473
      4472      4470      4473      4473      4476      4477      4473      4476      4478
      4473      4476      4479      4474      4473      4475      4474      4473      4476
      4475      4473      4476      4476      4479      4480      4476      4479      4481
      4476      4479      4482      4477      4476      4478      4477      4476      4479
      4478      4476      4479      4479      4482      4483      4479      4482      4484
      4479      4482      4485      4480      4479      4481      4480      4479      4482
      4481      4479      4482      4482      4485      4486      4482      4485      4487
      4483      4482      4484      4483      4482      4485      4484      4482      4485
      4485      4487      4488      4485      4487      4489      4486      4485      4487
      4487      4489      4490      4487      4489      4491      4487      4489      4492
      4488      4487      4489      4489      4492      4493      4489      4492      4494
      4489      4492      4495      4490      4489      4491      4490      4489      4492
      4491      4489      4492      4492      4495      4496      4492      4495      4497
      4492      4495      4498      4493      4492      4494      4493      4492      4495
      4494      4492      4495      4495      4498      4499      4495      4498      4500
      4495      4498      4501      4496      4495      4497      4496      4495      4498
      4497      4495      4498      4498      4501      4502      4498      4501      4503
      4498      4501      4504      4499      4498      4500      4499      4498      4501
      4500      4498      4501      4501      4504      4505      4501      4504      4506
      4501      4504      4507      4502      4501      4503      4502      4501      4504
      4503      4501      4504      4504      4507      4508      4504      4507      4509
      4504      4507      4510      4505      4504      4506      4505      4504      4507
      4506      4504      4507      4507      4510      4511      4507      4510      4512
      4507      4510      4513      4508      4507      4509      4508      4507      4510
      4509      4507      4510      4511      4510      4512      4511      4510      4513
      4512      4510      4513      4514      4517      4518      4514      4517      4519
      4514      4517      4520      4515      4514      4516      4515      4514      4517
      4516      4514      4517      4517      4520      4521      4517      4520      4522
      4517      4520      4523      4518      4517      4519      4518      4517      4520
      4519      4517      4520      4520      4523      4524      4520      4523      4525
      4520      4523      4526      4521      4520      4522      4521      4520      4523
      4522      4520      4523      4523      4526      4527      4523      4526      4528
      4523      4526      4529      4524      4523      4525      4524      4523      4526
      4525      4523      4526      4526      4529      4530      4526      4529      4531
      4526      4529      4532      4527      4526      4528      4527      4526      4529
      4528      4526      4529      4529      4532      4533      4529      4532      4534
      4529      4532      4535      4530      4529      4531      4530      4529      4532
      4531      4529      4532      4532      4535      4536      4532      4535      4537
      4532      4535      4538      4533      4532      4534      4533      4532      4535
      4534      4532      4535      4535      4538      4539      4535      4538      4540
      4535      4538      4541      4536      4535      4537      4536      4535      4538
      4537      4535      4538      4538      4541      4542      4538      4541      4543
      4538      4541      4544      4539      4538      4540      4539      4538      4541
      4540      4538      4541      4541      4544      4545      4541      4544      4546
      4541      4544      4547      4542      4541      4543      4542      4541      4544
      4543      4541      4544      4544      4547      4548      4544      4547      4549
      4544      4547      4550      4545      4544      4546      4545      4544      4547
      4546      4544      4547      4547      4550      4551      4547      4550      4552
      4547      4550      4553      4548      4547      4549      4548      4547      4550
      4549      4547      4550      4550      4553      4554      4550      4553      4555
      4550      4553      4556      4551      4550      4552      4551      4550      4553
      4552      4550      4553      4554      4553      4555      4554      4553      4556
      4555      4553      4556      4557      4558      4559      4557      4558      4560
      4557      4558      4573      4557      4561      4562      4557      4561      4563
      4557      4561      4564      4557      4565      4566      4557      4565      4567
      4557      4565      4568      4557      4569      4570      4557      4569      4571
      4557      4569      4572      4558      4557      4561      4558      4557      4565
      4558      4557      4569      4558      4573      4574      4558      4573      4575
      4558      4573      4579      4559      4558      4560      4559      4558      4573
      4560      4558      4573      4561      4557      4565      4561      4557      4569
      4562      4561      4563      4562      4561      4564      4563      4561      4564
      4565      4557      4569      4566      4565      4567      4566      4565      4568
      4567      4565      4568      4570      4569      4571      4570      4569      4572
      4571      4569      4572      4573      4579      4576      4574      4573      4575
      4574      4573      4579      4575      4573      4579      4576      4580      4581
      4577      4576      4578      4577      4576      4579      4577      4576      4580
      4578      4576      4579      4578      4576      4580      4579      4576      4580
      4580      4581      4582      4580      4581      4583      4580      4581      4584
      4581      4584      4585      4581      4584      4586      4581      4584      4592
      4582      4581      4583      4582      4581      4584      4583      4581      4584
      4584      4586      4587      4584      4592      4593      4584      4592      4594
      4584      4592      4595      4585      4584      4586      4585      4584      4592
      4586      4584      4592      4586      4587      4588      4586      4587      4589
      4587      4589      4590      4587      4589      4591      4587      4589      4601
      4588      4587      4589      4589      4601      4602      4589      4601      4603
      4589      4601      4604      4590      4589      4591      4590      4589      4601
      4591      4589      4601      4592      4595      4596      4593      4592      4594
      4593      4592      4595      4594      4592      4595      4595      4596      4597
      4595      4596      4598      4596      4598      4599      4596      4598      4600
      4596      4598      4648      4597      4596      4598      4598      4648      4649
      4598      4648      4650      4598      4648      4651      4599      4598      4600
      4599      4598      4648      4600      4598      4648      4601      4604      4605
      4601      4604      4606      4601      4604      4607      4602      4601      4603
      4602      4601      4604      4603      4601      4604      4604      4607      4608
      4604      4607      4609      4604      4607      4610      4605      4604      4606
      4605      4604      4607      4606      4604      4607      4607      4610      4611
      4607      4610      4612      4607      4610      4613      4608      4607      4609
      4608      4607      4610      4609      4607      4610      4610      4613      4614
      4610      4613      4615      4610      4613      4616      4611      4610      4612
      4611      4610      4613      4612      4610      4613      4613      4616      4617
      4613      4616      4618      4613      4616      4619      4614      4613      4615
      4614      4613      4616      4615      4613      4616      4616      4619      4620
      4616      4619      4621      4617      4616      4618      4617      4616      4619
      4618      4616      4619      4619      4621      4622      4619      4621      4623
      4620      4619      4621      4621      4623      4624      4621      4623      4625
      4621      4623      4626      4622      4621      4623      4623      4626      4627
      4623      4626      4628      4623      4626      4629      4624      4623      4625
      4624      4623      4626      4625      4623      4626      4626      4629      4630
      4626      4629      4631      4626      4629      4632      4627      4626      4628
      4627      4626      4629      4628      4626      4629      4629      4632      4633
      4629      4632      4634      4629      4632      4635      4630      4629      4631
      4630      4629      4632      4631      4629      4632      4632      4635      4636
      4632      4635      4637      4632      4635      4638      4633      4632      4634
      4633      4632      4635      4634      4632      4635      4635      4638      4639
      4635      4638      4640      4635      4638      4641      4636      4635      4637
      4636      4635      4638      4637      4635      4638      4638      4641      4642
      4638      4641      4643      4638      4641      4644      4639      4638      4640
      4639      4638      4641      4640      4638      4641      4641      4644      4645
      4641      4644      4646      4641      4644      4647      4642      4641      4643
      4642      4641      4644      4643      4641      4644      4645      4644      4646
      4645      4644      4647      4646      4644      4647      4648      4651      4652
      4648      4651      4653      4648      4651      4654      4649      4648      4650
      4649      4648      4651      4650      4648      4651      4651      4654      4655
      4651      4654      4656      4651      4654      4657      4652      4651      4653
      4652      4651      4654      4653      4651      4654      4654      4657      4658
      4654      4657      4659      4654      4657      4660      4655      4654      4656
      4655      4654      4657      4656      4654      4657      4657      4660      4661
      4657      4660      4662      4657      4660      4663      4658      4657      4659
      4658      4657      4660      4659      4657      4660      4660      4663      4664
      4660      4663      4665      4660      4663      4666      4661      4660      4662
      4661      4660      4663      4662      4660      4663      4663      4666      4667
      4663      4666      4668      4663      4666      4669      4664      4663      4665
      4664      4663      4666      4665      4663      4666      4666      4669      4670
      4666      4669      4671      4666      4669      4672      4667      4666      4668
      4667      4666      4669      4668      4666      4669      4669      4672      4673
      4669      4672      4674      4669      4672      4675      4670      4669      4671
      4670      4669      4672      4671      4669      4672      4672      4675      4676
      4672      4675      4677      4672      4675      4678      4673      4672      4674
      4673      4672      4675      4674      4672      4675      4675      4678      4679
      4675      4678      4680      4675      4678      4681      4676      4675      4677
      4676      4675      4678      4677      4675      4678      4678      4681      4682
      4678      4681      4683      4678      4681      4684      4679      4678      4680
      4679      4678      4681      4680      4678      4681      4681      4684      4685
      4681      4684      4686      4681      4684      4687      4682      4681      4683
      4682      4681      4684      4683      4681      4684      4684      4687      4688
      4684      4687      4689      4684      4687      4690      4685      4684      4686
      4685      4684      4687      4686      4684      4687      4688      4687      4689
      4688      4687      4690      4689      4687      4690      4691      4692      4693
      4691      4692      4694      4691      4692      4707      4691      4695      4696
      4691      4695      4697      4691      4695      4698      4691      4699      4700
      4691      4699      4701      4691      4699      4702      4691      4703      4704
      4691      4703      4705      4691      4703      4706      4692      4691      4695
      4692      4691      4699      4692      4691      4703      4692      4707      4708
      4692      4707      4709      4692      4707      4713      4693      4692      4694
      4693      4692      4707      4694      4692      4707      4695      4691      4699
      4695      4691      4703      4696      4695      4697      4696      4695      4698
      4697      4695      4698      4699      4691      4703      4700      4699      4701
      4700      4699      4702      4701      4699      4702      4704      4703      4705
      4704      4703      4706      4705      4703      4706      4707      4713      4710
      4708      4707      4709      4708      4707      4713      4709      4707      4713
      4710      4714      4715      4711      4710      4712      4711      4710      4713
      4711      4710      4714      4712      4710      4713      4712      4710      4714
      4713      4710      4714      4714      4715      4716      4714      4715      4717
      4714      4715      4718      4715      4718      4719      4715      4718      4720
      4715      4718      4726      4716      4715      4717      4716      4715      4718
      4717      4715      4718      4718      4720      4721      4718      4726      4727
      4718      4726      4728      4718      4726      4729      4719      4718      4720
      4719      4718      4726      4720      4718      4726      4720      4721      4722
      4720      4721      4723      4721      4723      4724      4721      4723      4725
      4721      4723      4735      4722      4721      4723      4723      4735      4736
      4723      4735      4737      4723      4735      4738      4724      4723      4725
      4724      4723      4735      4725      4723      4735      4726      4729      4730
      4727      4726      4728      4727      4726      4729      4728      4726      4729
      4729      4730      4731      4729      4730      4732      4730      4732      4733
      4730      4732      4734      4730      4732      4782      4731      4730      4732
      4732      4782      4783      4732      4782      4784      4732      4782      4785
      4733      4732      4734      4733      4732      4782      4734      4732      4782
      4735      4738      4739      4735      4738      4740      4735      4738      4741
      4736      4735      4737      4736      4735      4738      4737      4735      4738
      4738      4741      4742      4738      4741      4743      4738      4741      4744
      4739      4738      4740      4739      4738      4741      4740      4738      4741
      4741      4744      4745      4741      4744      4746      4741      4744      4747
      4742      4741      4743      4742      4741      4744      4743      4741      4744
      4744      4747      4748      4744      4747      4749      4744      4747      4750
      4745      4744      4746      4745      4744      4747      4746      4744      4747
      4747      4750      4751      4747      4750      4752      4747      4750      4753
      4748      4747      4749      4748      4747      4750      4749      4747      4750
      4750      4753      4754      4750      4753      4755      4751      4750      4752
      4751      4750      4753      4752      4750      4753      4753      4755      4756
      4753      4755      4757      4754      4753      4755      4755      4757      4758
      4755      4757      4759      4755      4757      4760      4756      4755      4757
      4757      4760      4761      4757      4760      4762      4757      4760      4763
      4758      4757      4759      4758      4757      4760      4759      4757      4760
      4760      4763      4764      4760      4763      4765      4760      4763      4766
      4761      4760      4762      4761      4760      4763      4762      4760      4763
      4763      4766      4767      4763      4766      4768      4763      4766      4769
      4764      4763      4765      4764      4763      4766      4765      4763      4766
      4766      4769      4770      4766      4769      4771      4766      4769      4772
      4767      4766      4768      4767      4766      4769      4768      4766      4769
      4769      4772      4773      4769      4772      4774      4769      4772      4775
      4770      4769      4771      4770      4769      4772      4771      4769      4772
      4772      4775      4776      4772      4775      4777      4772      4775      4778
      4773      4772      4774      4773      4772      4775      4774      4772      4775
      4775      4778      4779      4775      4778      4780      4775      4778      4781
      4776      4775      4777      4776      4775      4778      4777      4775      4778
      4779      4778      4780      4779      4778      4781      4780      4778      4781
      4782      4785      4786      4782      4785      4787      4782      4785      4788
      4783      4782      4784      4783      4782      4785      4784      4782      4785
      4785      4788      4789      4785      4788      4790      4785      4788      4791
      4786      4785      4787      4786      4785      4788      4787      4785      4788
      4788      4791      4792      4788      4791      4793      4788      4791      4794
      4789      4788      4790      4789      4788      4791      4790      4788      4791
      4791      4794      4795      4791      4794      4796      4791      4794      4797
      4792      4791      4793      4792      4791      4794      4793      4791      4794
      4794      4797      4798      4794      4797      4799      4794      4797      4800
      4795      4794      4796      4795      4794      4797      4796      4794      4797
      4797      4800      4801      4797      4800      4802      4797      4800      4803
      4798      4797      4799      4798      4797      4800      4799      4797      4800
      4800      4803      4804      4800      4803      4805      4800      4803      4806
      4801      4800      4802      4801      4800      4803      4802      4800      4803
      4803      4806      4807      4803      4806      4808      4803      4806      4809
      4804      4803      4805      4804      4803      4806      4805      4803      4806
      4806      4809      4810      4806      4809      4811      4806      4809      4812
      4807      4806      4808      4807      4806      4809      4808      4806      4809
      4809      4812      4813      4809      4812      4814      4809      4812      4815
      4810      4809      4811      4810      4809      4812      4811      4809      4812
      4812      4815      4816      4812      4815      4817      4812      4815      4818
      4813      4812      4814      4813      4812      4815      4814      4812      4815
      4815      4818      4819      4815      4818      4820      4815      4818      4821
      4816      4815      4817      4816      4815      4818      4817      4815      4818
      4818      4821      4822      4818      4821      4823      4818      4821      4824
      4819      4818      4820      4819      4818      4821      4820      4818      4821
      4822      4821      4823      4822      4821      4824      4823      4821      4824
      4825      4826      4827      4825      4826      4828      4825      4826      4841
      4825      4829      4830      4825      4829      4831      4825      4829      4832
      4825      4833      4834      4825      4833      4835      4825      4833      4836
      4825      4837      4838      4825      4837      4839      4825      4837      4840
      4826      4825      4829      4826      4825      4833      4826      4825      4837
      4826      4841      4842      4826      4841      4843      4826      4841      4847
      4827      4826      4828      4827      4826      4841      4828      4826      4841
      4829      4825      4833      4829      4825      4837      4830      4829      4831
      4830      4829      4832      4831      4829      4832      4833      4825      4837
      4834      4833      4835      4834      4833      4836      4835      4833      4836
      4838      4837      4839      4838      4837      4840      4839      4837      4840
      4841      4847      4844      4842      4841      4843      4842      4841      4847
      4843      4841      4847      4844      4848      4849      4845      4844      4846
      4845      4844      4847      4845      4844      4848      4846      4844      4847
      4846      4844      4848      4847      4844      4848      4848      4849      4850
      4848      4849      4851      4848      4849      4852      4849      4852      4853
      4849      4852      4854      4849      4852      4860      4850      4849      4851
      4850      4849      4852      4851      4849      4852      4852      4854      4855
      4852      4860      4861      4852      4860      4862      4852      4860      4863
      4853      4852      4854      4853      4852      4860      4854      4852      4860
      4854      4855      4856      4854      4855      4857      4855      4857      4858
      4855      4857      4859      4855      4857      4869      4856      4855      4857
      4857      4869      4870      4857      4869      4871      4857      4869      4872
      4858      4857      4859      4858      4857      4869      4859      4857      4869
      4860      4863      4864      4861      4860      4862      4861      4860      4863
      4862      4860      4863      4863      4864      4865      4863      4864      4866
      4864      4866      4867      4864      4866      4868      4864      4866      4916
      4865      4864      4866      4866      4916      4917      4866      4916      4918
      4866      4916      4919      4867      4866      4868      4867      4866      4916
      4868      4866      4916      4869      4872      4873      4869      4872      4874
      4869      4872      4875      4870      4869      4871      4870      4869      4872
      4871      4869      4872      4872      4875      4876      4872      4875      4877
      4872      4875      4878      4873      4872      4874      4873      4872      4875
      4874      4872      4875      4875      4878      4879      4875      4878      4880
      4875      4878      4881      4876      4875      4877      4876      4875      4878
      4877      4875      4878      4878      4881      4882      4878      4881      4883
      4878      4881      4884      4879      4878      4880      4879      4878      4881
      4880      4878      4881      4881      4884      4885      4881      4884      4886
      4881      4884      4887      4882      4881      4883      4882      4881      4884
      4883      4881      4884      4884      4887      4888      4884      4887      4889
      4885      4884      4886      4885      4884      4887      4886      4884      4887
      4887      4889      4890      4887      4889      4891      4888      4887      4889
      4889      4891      4892      4889      4891      4893      4889      4891      4894
      4890      4889      4891      4891      4894      4895      4891      4894      4896
      4891      4894      4897      4892      4891      4893      4892      4891      4894
      4893      4891      4894      4894      4897      4898      4894      4897      4899
      4894      4897      4900      4895      4894      4896      4895      4894      4897
      4896      4894      4897      4897      4900      4901      4897      4900      4902
      4897      4900      4903      4898      4897      4899      4898      4897      4900
      4899      4897      4900      4900      4903      4904      4900      4903      4905
      4900      4903      4906      4901      4900      4902      4901      4900      4903
      4902      4900      4903      4903      4906      4907      4903      4906      4908
      4903      4906      4909      4904      4903      4905      4904      4903      4906
      4905      4903      4906      4906      4909      4910      4906      4909      4911
      4906      4909      4912      4907      4906      4908      4907      4906      4909
      4908      4906      4909      4909      4912      4913      4909      4912      4914
      4909      4912      4915      4910      4909      4911      4910      4909      4912
      4911      4909      4912      4913      4912      4914      4913      4912      4915
      4914      4912      4915      4916      4919      4920      4916      4919      4921
      4916      4919      4922      4917      4916      4918      4917      4916      4919
      4918      4916      4919      4919      4922      4923      4919      4922      4924
      4919      4922      4925      4920      4919      4921      4920      4919      4922
      4921      4919      4922      4922      4925      4926      4922      4925      4927
      4922      4925      4928      4923      4922      4924      4923      4922      4925
      4924      4922      4925      4925      4928      4929      4925      4928      4930
      4925      4928      4931      4926      4925      4927      4926      4925      4928
      4927      4925      4928      4928      4931      4932      4928      4931      4933
      4928      4931      4934      4929      4928      4930      4929      4928      4931
      4930      4928      4931      4931      4934      4935      4931      4934      4936
      4931      4934      4937      4932      4931      4933      4932      4931      4934
      4933      4931      4934      4934      4937      4938      4934      4937      4939
      4934      4937      4940      4935      4934      4936      4935      4934      4937
      4936      4934      4937      4937      4940      4941      4937      4940      4942
      4937      4940      4943      4938      4937      4939      4938      4937      4940
      4939      4937      4940      4940      4943      4944      4940      4943      4945
      4940      4943      4946      4941      4940      4942      4941      4940      4943
      4942      4940      4943      4943      4946      4947      4943      4946      4948
      4943      4946      4949      4944      4943      4945      4944      4943      4946
      4945      4943      4946      4946      4949      4950      4946      4949      4951
      4946      4949      4952      4947      4946      4948      4947      4946      4949
      4948      4946      4949      4949      4952      4953      4949      4952      4954
      4949      4952      4955      4950      4949      4951      4950      4949      4952
      4951      4949      4952      4952      4955      4956      4952      4955      4957
      4952      4955      4958      4953      4952      4954      4953      4952      4955
      4954      4952      4955      4956      4955      4957      4956      4955      4958
      4957      4955      4958      4959      4960      4961      4959      4960      4962
      4959      4960      4975      4959      4963      4964      4959      4963      4965
      4959      4963      4966      4959      4967      4968      4959      4967      4969
      4959      4967      4970      4959      4971      4972      4959      4971      4973
      4959      4971      4974      4960      4959      4963      4960      4959      4967
      4960      4959      4971      4960      4975      4976      4960      4975      4977
      4960      4975      4981      4961      4960      4962      4961      4960      4975
      4962      4960      4975      4963      4959      4967      4963      4959      4971
      4964      4963      4965      4964      4963      4966      4965      4963      4966
      4967      4959      4971      4968      4967      4969      4968      4967      4970
      4969      4967      4970      4972      4971      4973      4972      4971      4974
      4973      4971      4974      4975      4981      4978      4976      4975      4977
      4976      4975      4981      4977      4975      4981      4978      4982      4983
      4979      4978      4980      4979      4978      4981      4979      4978      4982
      4980      4978      4981      4980      4978      4982      4981      4978      4982
      4982      4983      4984      4982      4983      4985      4982      4983      4986
      4983      4986      4987      4983      4986      4988      4983      4986      4994
      4984      4983      4985      4984      4983      4986      4985      4983      4986
      4986      4988      4989      4986      4994      4995      4986      4994      4996
      4986      4994      4997      4987      4986      4988      4987      4986      4994
      4988      4986      4994      4988      4989      4990      4988      4989      4991
      4989      4991      4992      4989      4991      4993      4989      4991      5003
      4990      4989      4991      4991      5003      5004      4991      5003      5005
      4991      5003      5006      4992      4991      4993      4992      4991      5003
      4993      4991      5003      4994      4997      4998      4995      4994      4996
      4995      4994      4997      4996      4994      4997      4997      4998      4999
      4997      4998      5000      4998      5000      5001      4998      5000      5002
      4998      5000      5050      4999      4998      5000      5000      5050      5051
      5000      5050      5052      5000      5050      5053      5001      5000      5002
      5001      5000      5050      5002      5000      5050      5003      5006      5007
      5003      5006      5008      5003      5006      5009      5004      5003      5005
      5004      5003      5006      5005      5003      5006      5006      5009      5010
      5006      5009      5011      5006      5009      5012      5007      5006      5008
      5007      5006      5009      5008      5006      5009      5009      5012      5013
      5009      5012      5014      5009      5012      5015      5010      5009      5011
      5010      5009      5012      5011      5009      5012      5012      5015      5016
      5012      5015      5017      5012      5015      5018      5013      5012      5014
      5013      5012      5015      5014      5012      5015      5015      5018      5019
      5015      5018      5020      5015      5018      5021      5016      5015      5017
      5016      5015      5018      5017      5015      5018      5018      5021      5022
      5018      5021      5023      5019      5018      5020      5019      5018      5021
      5020      5018      5021      5021      5023      5024      5021      5023      5025
      5022      5021      5023      5023      5025      5026      5023      5025      5027
      5023      5025      5028      5024      5023      5025      5025      5028      5029
      5025      5028      5030      5025      5028      5031      5026      5025      5027
      5026      5025      5028      5027      5025      5028      5028      5031      5032
      5028      5031      5033      5028      5031      5034      5029      5028      5030
      5029      5028      5031      5030      5028      5031      5031      5034      5035
      5031      5034      5036      5031      5034      5037      5032      5031      5033
      5032      5031      5034      5033      5031      5034      5034      5037      5038
      5034      5037      5039      5034      5037      5040      5035      5034      5036
      5035      5034      5037      5036      5034      5037      5037      5040      5041
      5037      5040      5042      5037      5040      5043      5038      5037      5039
      5038      5037      5040      5039      5037      5040      5040      5043      5044
      5040      5043      5045      5040      5043      5046      5041      5040      5042
      5041      5040      5043      5042      5040      5043      5043      5046      5047
      5043      5046      5048      5043      5046      5049      5044      5043      5045
      5044      5043      5046      5045      5043      5046      5047      5046      5048
      5047      5046      5049      5048      5046      5049      5050      5053      5054
      5050      5053      5055      5050      5053      5056      5051      5050      5052
      5051      5050      5053      5052      5050      5053      5053      5056      5057
      5053      5056      5058      5053      5056      5059      5054      5053      5055
      5054      5053      5056      5055      5053      5056      5056      5059      5060
      5056      5059      5061      5056      5059      5062      5057      5056      5058
      5057      5056      5059      5058      5056      5059      5059      5062      5063
      5059      5062      5064      5059      5062      5065      5060      5059      5061
      5060      5059      5062      5061      5059      5062      5062      5065      5066
      5062      5065      5067      5062      5065      5068      5063      5062      5064
      5063      5062      5065      5064      5062      5065      5065      5068      5069
      5065      5068      5070      5065      5068      5071      5066      5065      5067
      5066      5065      5068      5067      5065      5068      5068      5071      5072
      5068      5071      5073      5068      5071      5074      5069      5068      5070
      5069      5068      5071      5070      5068      5071      5071      5074      5075
      5071      5074      5076      5071      5074      5077      5072      5071      5073
      5072      5071      5074      5073      5071      5074      5074      5077      5078
      5074      5077      5079      5074      5077      5080      5075      5074      5076
      5075      5074      5077      5076      5074      5077      5077      5080      5081
      5077      5080      5082      5077      5080      5083      5078      5077      5079
      5078      5077      5080      5079      5077      5080      5080      5083      5084
      5080      5083      5085      5080      5083      5086      5081      5080      5082
      5081      5080      5083      5082      5080      5083      5083      5086      5087
      5083      5086      5088      5083      5086      5089      5084      5083      5085
      5084      5083      5086      5085      5083      5086      5086      5089      5090
      5086      5089      5091      5086      5089      5092      5087      5086      5088
      5087      5086      5089      5088      5086      5089      5090      5089      5091
      5090      5089      5092      5091      5089      5092      5093      5094      5095
      5093      5094      5096      5093      5094      5109      5093      5097      5098
      5093      5097      5099      5093      5097      5100      5093      5101      5102
      5093      5101      5103      5093      5101      5104      5093      5105      5106
      5093      5105      5107      5093      5105      5108      5094      5093      5097
      5094      5093      5101      5094      5093      5105      5094      5109      5110
      5094      5109      5111      5094      5109      5115      5095      5094      5096
      5095      5094      5109      5096      5094      5109      5097      5093      5101
      5097      5093      5105      5098      5097      5099      5098      5097      5100
      5099      5097      5100      5101      5093      5105      5102      5101      5103
      5102      5101      5104      5103      5101      5104      5106      5105      5107
      5106      5105      5108      5107      5105      5108      5109      5115      5112
      5110      5109      5111      5110      5109      5115      5111      5109      5115
      5112      5116      5117      5113      5112      5114      5113      5112      5115
      5113      5112      5116      5114      5112      5115      5114      5112      5116
      5115      5112      5116      5116      5117      5118      5116      5117      5119
      5116      5117      5120      5117      5120      5121      5117      5120      5122
      5117      5120      5128      5118      5117      5119      5118      5117      5120
      5119      5117      5120      5120      5122      5123      5120      5128      5129
      5120      5128      5130      5120      5128      5131      5121      5120      5122
      5121      5120      5128      5122      5120      5128      5122      5123      5124
      5122      5123      5125      5123      5125      5126      5123      5125      5127
      5123      5125      5137      5124      5123      5125      5125      5137      5138
      5125      5137      5139      5125      5137      5140      5126      5125      5127
      5126      5125      5137      5127      5125      5137      5128      5131      5132
      5129      5128      5130      5129      5128      5131      5130      5128      5131
      5131      5132      5133      5131      5132      5134      5132      5134      5135
      5132      5134      5136      5132      5134      5184      5133      5132      5134
      5134      5184      5185      5134      5184      5186      5134      5184      5187
      5135      5134      5136      5135      5134      5184      5136      5134      5184
      5137      5140      5141      5137      5140      5142      5137      5140      5143
      5138      5137      5139      5138      5137      5140      5139      5137      5140
      5140      5143      5144      5140      5143      5145      5140      5143      5146
      5141      5140      5142      5141      5140      5143      5142      5140      5143
      5143      5146      5147      5143      5146      5148      5143      5146      5149
      5144      5143      5145      5144      5143      5146      5145      5143      5146
      5146      5149      5150      5146      5149      5151      5146      5149      5152
      5147      5146      5148      5147      5146      5149      5148      5146      5149
      5149      5152      5153      5149      5152      5154      5149      5152      5155
      5150      5149      5151      5150      5149      5152      5151      5149      5152
      5152      5155      5156      5152      5155      5157      5153      5152      5154
      5153      5152      5155      5154      5152      5155      5155      5157      5158
      5155      5157      5159      5156      5155      5157      5157      5159      5160
      5157      5159      5161      5157      5159      5162      5158      5157      5159
      5159      5162      5163      5159      5162      5164      5159      5162      5165
      5160      5159      5161      5160      5159      5162      5161      5159      5162
      5162      5165      5166      5162      5165      5167      5162      5165      5168
      5163      5162      5164      5163      5162      5165      5164      5162      5165
      5165      5168      5169      5165      5168      5170      5165      5168      5171
      5166      5165      5167      5166      5165      5168      5167      5165      5168
      5168      5171      5172      5168      5171      5173      5168      5171      5174
      5169      5168      5170      5169      5168      5171      5170      5168      5171
      5171      5174      5175      5171      5174      5176      5171      5174      5177
      5172      5171      5173      5172      5171      5174      5173      5171      5174
      5174      5177      5178      5174      5177      5179      5174      5177      5180
      5175      5174      5176      5175      5174      5177      5176      5174      5177
      5177      5180      5181      5177      5180      5182      5177      5180      5183
      5178      5177      5179      5178      5177      5180      5179      5177      5180
      5181      5180      5182      5181      5180      5183      5182      5180      5183
      5184      5187      5188      5184      5187      5189      5184      5187      5190
      5185      5184      5186      5185      5184      5187      5186      5184      5187
      5187      5190      5191      5187      5190      5192      5187      5190      5193
      5188      5187      5189      5188      5187      5190      5189      5187      5190
      5190      5193      5194      5190      5193      5195      5190      5193      5196
      5191      5190      5192      5191      5190      5193      5192      5190      5193
      5193      5196      5197      5193      5196      5198      5193      5196      5199
      5194      5193      5195      5194      5193      5196      5195      5193      5196
      5196      5199      5200      5196      5199      5201      5196      5199      5202
      5197      5196      5198      5197      5196      5199      5198      5196      5199
      5199      5202      5203      5199      5202      5204      5199      5202      5205
      5200      5199      5201      5200      5199      5202      5201      5199      5202
      5202      5205      5206      5202      5205      5207      5202      5205      5208
      5203      5202      5204      5203      5202      5205      5204      5202      5205
      5205      5208      5209      5205      5208      5210      5205      5208      5211
      5206      5205      5207      5206      5205      5208      5207      5205      5208
      5208      5211      5212      5208      5211      5213      5208      5211      5214
      5209      5208      5210      5209      5208      5211      5210      5208      5211
      5211      5214      5215      5211      5214      5216      5211      5214      5217
      5212      5211      5213      5212      5211      5214      5213      5211      5214
      5214      5217      5218      5214      5217      5219      5214      5217      5220
      5215      5214      5216      5215      5214      5217      5216      5214      5217
      5217      5220      5221      5217      5220      5222      5217      5220      5223
      5218      5217      5219      5218      5217      5220      5219      5217      5220
      5220      5223      5224      5220      5223      5225      5220      5223      5226
      5221      5220      5222      5221      5220      5223      5222      5220      5223
      5224      5223      5225      5224      5223      5226      5225      5223      5226
      5227      5228      5229      5227      5228      5230      5227      5228      5243
      5227      5231      5232      5227      5231      5233      5227      5231      5234
      5227      5235      5236      5227      5235      5237      5227      5235      5238
      5227      5239      5240      5227      5239      5241      5227      5239      5242
      5228      5227      5231      5228      5227      5235      5228      5227      5239
      5228      5243      5244      5228      5243      5245      5228      5243      5249
      5229      5228      5230      5229      5228      5243      5230      5228      5243
      5231      5227      5235      5231      5227      5239      5232      5231      5233
      5232      5231      5234      5233      5231      5234      5235      5227      5239
      5236      5235      5237      5236      5235      5238      5237      5235      5238
      5240      5239      5241      5240      5239      5242      5241      5239      5242
      5243      5249      5246      5244      5243      5245      5244      5243      5249
      5245      5243      5249      5246      5250      5251      5247      5246      5248
      5247      5246      5249      5247      5246      5250      5248      5246      5249
      5248      5246      5250      5249      5246      5250      5250      5251      5252
      5250      5251      5253      5250      5251      5254      5251      5254      5255
      5251      5254      5256      5251      5254      5262      5252      5251      5253
      5252      5251      5254      5253      5251      5254      5254      5256      5257
      5254      5262      5263      5254      5262      5264      5254      5262      5265
      5255      5254      5256      5255      5254      5262      5256      5254      5262
      5256      5257      5258      5256      5257      5259      5257      5259      5260
      5257      5259      5261      5257      5259      5271      5258      5257      5259
      5259      5271      5272      5259      5271      5273      5259      5271      5274
      5260      5259      5261      5260      5259      5271      5261      5259      5271
      5262      5265      5266      5263      5262      5264      5263      5262      5265
      5264      5262      5265      5265      5266      5267      5265      5266      5268
      5266      5268      5269      5266      5268      5270      5266      5268      5318
      5267      5266      5268      5268      5318      5319      5268      5318      5320
      5268      5318      5321      5269      5268      5270      5269      5268      5318
      5270      5268      5318      5271      5274      5275      5271      5274      5276
      5271      5274      5277      5272      5271      5273      5272      5271      5274
      5273      5271      5274      5274      5277      5278      5274      5277      5279
      5274      5277      5280      5275      5274      5276      5275      5274      5277
      5276      5274      5277      5277      5280      5281      5277      5280      5282
      5277      5280      5283      5278      5277      5279      5278      5277      5280
      5279      5277      5280      5280      5283      5284      5280      5283      5285
      5280      5283      5286      5281      5280      5282      5281      5280      5283
      5282      5280      5283      5283      5286      5287      5283      5286      5288
      5283      5286      5289      5284      5283      5285      5284      5283      5286
      5285      5283      5286      5286      5289      5290      5286      5289      5291
      5287      5286      5288      5287      5286      5289      5288      5286      5289
      5289      5291      5292      5289      5291      5293      5290      5289      5291
      5291      5293      5294      5291      5293      5295      5291      5293      5296
      5292      5291      5293      5293      5296      5297      5293      5296      5298
      5293      5296      5299      5294      5293      5295      5294      5293      5296
      5295      5293      5296      5296      5299      5300      5296      5299      5301
      5296      5299      5302      5297      5296      5298      5297      5296      5299
      5298      5296      5299      5299      5302      5303      5299      5302      5304
      5299      5302      5305      5300      5299      5301      5300      5299      5302
      5301      5299      5302      5302      5305      5306      5302      5305      5307
      5302      5305      5308      5303      5302      5304      5303      5302      5305
      5304      5302      5305      5305      5308      5309      5305      5308      5310
      5305      5308      5311      5306      5305      5307      5306      5305      5308
      5307      5305      5308      5308      5311      5312      5308      5311      5313
      5308      5311      5314      5309      5308      5310      5309      5308      5311
      5310      5308      5311      5311      5314      5315      5311      5314      5316
      5311      5314      5317      5312      5311      5313      5312      5311      5314
      5313      5311      5314      5315      5314      5316      5315      5314      5317
      5316      5314      5317      5318      5321      5322      5318      5321      5323
      5318      5321      5324      5319      5318      5320      5319      5318      5321
      5320      5318      5321      5321      5324      5325      5321      5324      5326
      5321      5324      5327      5322      5321      5323      5322      5321      5324
      5323      5321      5324      5324      5327      5328      5324      5327      5329
      5324      5327      5330      5325      5324      5326      5325      5324      5327
      5326      5324      5327      5327      5330      5331      5327      5330      5332
      5327      5330      5333      5328      5327      5329      5328      5327      5330
      5329      5327      5330      5330      5333      5334      5330      5333      5335
      5330      5333      5336      5331      5330      5332      5331      5330      5333
      5332      5330      5333      5333      5336      5337      5333      5336      5338
      5333      5336      5339      5334      5333      5335      5334      5333      5336
      5335      5333      5336      5336      5339      5340      5336      5339      5341
      5336      5339      5342      5337      5336      5338      5337      5336      5339
      5338      5336      5339      5339      5342      5343      5339      5342      5344
      5339      5342      5345      5340      5339      5341      5340      5339      5342
      5341      5339      5342      5342      5345      5346      5342      5345      5347
      5342      5345      5348      5343      5342      5344      5343      5342      5345
      5344      5342      5345      5345      5348      5349      5345      5348      5350
      5345      5348      5351      5346      5345      5347      5346      5345      5348
      5347      5345      5348      5348      5351      5352      5348      5351      5353
      5348      5351      5354      5349      5348      5350      5349      5348      5351
      5350      5348      5351      5351      5354      5355      5351      5354      5356
      5351      5354      5357      5352      5351      5353      5352      5351      5354
      5353      5351      5354      5354      5357      5358      5354      5357      5359
      5354      5357      5360      5355      5354      5356      5355      5354      5357
      5356      5354      5357      5358      5357      5359      5358      5357      5360
      5359      5357      5360      5361      5362      5363      5361      5362      5364
      5361      5362      5377      5361      5365      5366      5361      5365      5367
      5361      5365      5368      5361      5369      5370      5361      5369      5371
      5361      5369      5372      5361      5373      5374      5361      5373      5375
      5361      5373      5376      5362      5361      5365      5362      5361      5369
      5362      5361      5373      5362      5377      5378      5362      5377      5379
      5362      5377      5383      5363      5362      5364      5363      5362      5377
      5364      5362      5377      5365      5361      5369      5365      5361      5373
      5366      5365      5367      5366      5365      5368      5367      5365      5368
      5369      5361      5373      5370      5369      5371      5370      5369      5372
      5371      5369      5372      5374      5373      5375      5374      5373      5376
      5375      5373      5376      5377      5383      5380      5378      5377      5379
      5378      5377      5383      5379      5377      5383      5380      5384      5385
      5381      5380      5382      5381      5380      5383      5381      5380      5384
      5382      5380      5383      5382      5380      5384      5383      5380      5384
      5384      5385      5386      5384      5385      5387      5384      5385      5388
      5385      5388      5389      5385      5388      5390      5385      5388      5396
      5386      5385      5387      5386      5385      5388      5387      5385      5388
      5388      5390      5391      5388      5396      5397      5388      5396      5398
      5388      5396      5399      5389      5388      5390      5389      5388      5396
      5390      5388      5396      5390      5391      5392      5390      5391      5393
      5391      5393      5394      5391      5393      5395      5391      5393      5405
      5392      5391      5393      5393      5405      5406      5393      5405      5407
      5393      5405      5408      5394      5393      5395      5394      5393      5405
      5395      5393      5405      5396      5399      5400      5397      5396      5398
      5397      5396      5399      5398      5396      5399      5399      5400      5401
      5399      5400      5402      5400      5402      5403      5400      5402      5404
      5400      5402      5452      5401      5400      5402      5402      5452      5453
      5402      5452      5454      5402      5452      5455      5403      5402      5404
      5403      5402      5452      5404      5402      5452      5405      5408      5409
      5405      5408      5410      5405      5408      5411      5406      5405      5407
      5406      5405      5408      5407      5405      5408      5408      5411      5412
      5408      5411      5413      5408      5411      5414      5409      5408      5410
      5409      5408      5411      5410      5408      5411      5411      5414      5415
      5411      5414      5416      5411      5414      5417      5412      5411      5413
      5412      5411      5414      5413      5411      5414      5414      5417      5418
      5414      5417      5419      5414      5417      5420      5415      5414      5416
      5415      5414      5417      5416      5414      5417      5417      5420      5421
      5417      5420      5422      5417      5420      5423      5418      5417      5419
      5418      5417      5420      5419      5417      5420      5420      5423      5424
      5420      5423      5425      5421      5420      5422      5421      5420      5423
      5422      5420      5423      5423      5425      5426      5423      5425      5427
      5424      5423      5425      5425      5427      5428      5425      5427      5429
      5425      5427      5430      5426      5425      5427      5427      5430      5431
      5427      5430      5432      5427      5430      5433      5428      5427      5429
      5428      5427      5430      5429      5427      5430      5430      5433      5434
      5430      5433      5435      5430      5433      5436      5431      5430      5432
      5431      5430      5433      5432      5430      5433      5433      5436      5437
      5433      5436      5438      5433      5436      5439      5434      5433      5435
      5434      5433      5436      5435      5433      5436      5436      5439      5440
      5436      5439      5441      5436      5439      5442      5437      5436      5438
      5437      5436      5439      5438      5436      5439      5439      5442      5443
      5439      5442      5444      5439      5442      5445      5440      5439      5441
      5440      5439      5442      5441      5439      5442      5442      5445      5446
      5442      5445      5447      5442      5445      5448      5443      5442      5444
      5443      5442      5445      5444      5442      5445      5445      5448      5449
      5445      5448      5450      5445      5448      5451      5446      5445      5447
      5446      5445      5448      5447      5445      5448      5449      5448      5450
      5449      5448      5451      5450      5448      5451      5452      5455      5456
      5452      5455      5457      5452      5455      5458      5453      5452      5454
      5453      5452      5455      5454      5452      5455      5455      5458      5459
      5455      5458      5460      5455      5458      5461      5456      5455      5457
      5456      5455      5458      5457      5455      5458      5458      5461      5462
      5458      5461      5463      5458      5461      5464      5459      5458      5460
      5459      5458      5461      5460      5458      5461      5461      5464      5465
      5461      5464      5466      5461      5464      5467      5462      5461      5463
      5462      5461      5464      5463      5461      5464      5464      5467      5468
      5464      5467      5469      5464      5467      5470      5465      5464      5466
      5465      5464      5467      5466      5464      5467      5467      5470      5471
      5467      5470      5472      5467      5470      5473      5468      5467      5469
      5468      5467      5470      5469      5467      5470      5470      5473      5474
      5470      5473      5475      5470      5473      5476      5471      5470      5472
      5471      5470      5473      5472      5470      5473      5473      5476      5477
      5473      5476      5478      5473      5476      5479      5474      5473      5475
      5474      5473      5476      5475      5473      5476      5476      5479      5480
      5476      5479      5481      5476      5479      5482      5477      5476      5478
      5477      5476      5479      5478      5476      5479      5479      5482      5483
      5479      5482      5484      5479      5482      5485      5480      5479      5481
      5480      5479      5482      5481      5479      5482      5482      5485      5486
      5482      5485      5487      5482      5485      5488      5483      5482      5484
      5483      5482      5485      5484      5482      5485      5485      5488      5489
      5485      5488      5490      5485      5488      5491      5486      5485      5487
      5486      5485      5488      5487      5485      5488      5488      5491      5492
      5488      5491      5493      5488      5491      5494      5489      5488      5490
      5489      5488      5491      5490      5488      5491      5492      5491      5493
      5492      5491      5494      5493      5491      5494      5495      5496      5497
      5495      5496      5498      5495      5496      5511      5495      5499      5500
      5495      5499      5501      5495      5499      5502      5495      5503      5504
      5495      5503      5505      5495      5503      5506      5495      5507      5508
      5495      5507      5509      5495      5507      5510      5496      5495      5499
      5496      5495      5503      5496      5495      5507      5496      5511      5512
      5496      5511      5513      5496      5511      5517      5497      5496      5498
      5497      5496      5511      5498      5496      5511      5499      5495      5503
      5499      5495      5507      5500      5499      5501      5500      5499      5502
      5501      5499      5502      5503      5495      5507      5504      5503      5505
      5504      5503      5506      5505      5503      5506      5508      5507      5509
      5508      5507      5510      5509      5507      5510      5511      5517      5514
      5512      5511      5513      5512      5511      5517      5513      5511      5517
      5514      5518      5519      5515      5514      5516      5515      5514      5517
      5515      5514      5518      5516      5514      5517      5516      5514      5518
      5517      5514      5518      5518      5519      5520      5518      5519      5521
      5518      5519      5522      5519      5522      5523      5519      5522      5524
      5519      5522      5530      5520      5519      5521      5520      5519      5522
      5521      5519      5522      5522      5524      5525      5522      5530      5531
      5522      5530      5532      5522      5530      5533      5523      5522      5524
      5523      5522      5530      5524      5522      5530      5524      5525      5526
      5524      5525      5527      5525      5527      5528      5525      5527      5529
      5525      5527      5539      5526      5525      5527      5527      5539      5540
      5527      5539      5541      5527      5539      5542      5528      5527      5529
      5528      5527      5539      5529      5527      5539      5530      5533      5534
      5531      5530      5532      5531      5530      5533      5532      5530      5533
      5533      5534      5535      5533      5534      5536      5534      5536      5537
      5534      5536      5538      5534      5536      5586      5535      5534      5536
      5536      5586      5587      5536      5586      5588      5536      5586      5589
      5537      5536      5538      5537      5536      5586      5538      5536      5586
      5539      5542      5543      5539      5542      5544      5539      5542      5545
      5540      5539      5541      5540      5539      5542      5541      5539      5542
      5542      5545      5546      5542      5545      5547      5542      5545      5548
      5543      5542      5544      5543      5542      5545      5544      5542      5545
      5545      5548      5549      5545      5548      5550      5545      5548      5551
      5546      5545      5547      5546      5545      5548      5547      5545      5548
      5548      5551      5552      5548      5551      5553      5548      5551      5554
      5549      5548      5550      5549      5548      5551      5550      5548      5551
      5551      5554      5555      5551      5554      5556      5551      5554      5557
      5552      5551      5553      5552      5551      5554      5553      5551      5554
      5554      5557      5558      5554      5557      5559      5555      5554      5556
      5555      5554      5557      5556      5554      5557      5557      5559      5560
      5557      5559      5561      5558      5557      5559      5559      5561      5562
      5559      5561      5563      5559      5561      5564      5560      5559      5561
      5561      5564      5565      5561      5564      5566      5561      5564      5567
      5562      5561      5563      5562      5561      5564      5563      5561      5564
      5564      5567      5568      5564      5567      5569      5564      5567      5570
      5565      5564      5566      5565      5564      5567      5566      5564      5567
      5567      5570      5571      5567      5570      5572      5567      5570      5573
      5568      5567      5569      5568      5567      5570      5569      5567      5570
      5570      5573      5574      5570      5573      5575      5570      5573      5576
      5571      5570      5572      5571      5570      5573      5572      5570      5573
      5573      5576      5577      5573      5576      5578      5573      5576      5579
      5574      5573      5575      5574      5573      5576      5575      5573      5576
      5576      5579      5580      5576      5579      5581      5576      5579      5582
      5577      5576      5578      5577      5576      5579      5578      5576      5579
      5579      5582      5583      5579      5582      5584      5579      5582      5585
      5580      5579      5581      5580      5579      5582      5581      5579      5582
      5583      5582      5584      5583      5582      5585      5584      5582      5585
      5586      5589      5590      5586      5589      5591      5586      5589      5592
      5587      5586      5588      5587      5586      5589      5588      5586      5589
      5589      5592      5593      5589      5592      5594      5589      5592      5595
      5590      5589      5591      5590      5589      5592      5591      5589      5592
      5592      5595      5596      5592      5595      5597      5592      5595      5598
      5593      5592      5594      5593      5592      5595      5594      5592      5595
      5595      5598      5599      5595      5598      5600      5595      5598      5601
      5596      5595      5597      5596      5595      5598      5597      5595      5598
      5598      5601      5602      5598      5601      5603      5598      5601      5604
      5599      5598      5600      5599      5598      5601      5600      5598      5601
      5601      5604      5605      5601      5604      5606      5601      5604      5607
      5602      5601      5603      5602      5601      5604      5603      5601      5604
      5604      5607      5608      5604      5607      5609      5604      5607      5610
      5605      5604      5606      5605      5604      5607      5606      5604      5607
      5607      5610      5611      5607      5610      5612      5607      5610      5613
      5608      5607      5609      5608      5607      5610      5609      5607      5610
      5610      5613      5614      5610      5613      5615      5610      5613      5616
      5611      5610      5612      5611      5610      5613      5612      5610      5613
      5613      5616      5617      5613      5616      5618      5613      5616      5619
      5614      5613      5615      5614      5613      5616      5615      5613      5616
      5616      5619      5620      5616      5619      5621      5616      5619      5622
      5617      5616      5618      5617      5616      5619      5618      5616      5619
      5619      5622      5623      5619      5622      5624      5619      5622      5625
      5620      5619      5621      5620      5619      5622      5621      5619      5622
      5622      5625      5626      5622      5625      5627      5622      5625      5628
      5623      5622      5624      5623      5622      5625      5624      5622      5625
      5626      5625      5627      5626      5625      5628      5627      5625      5628
      5629      5630      5631      5629      5630      5632      5629      5630      5645
      5629      5633      5634      5629      5633      5635      5629      5633      5636
      5629      5637      5638      5629      5637      5639      5629      5637      5640
      5629      5641      5642      5629      5641      5643      5629      5641      5644
      5630      5629      5633      5630      5629      5637      5630      5629      5641
      5630      5645      5646      5630      5645      5647      5630      5645      5651
      5631      5630      5632      5631      5630      5645      5632      5630      5645
      5633      5629      5637      5633      5629      5641      5634      5633      5635
      5634      5633      5636      5635      5633      5636      5637      5629      5641
      5638      5637      5639      5638      5637      5640      5639      5637      5640
      5642      5641      5643      5642      5641      5644      5643      5641      5644
      5645      5651      5648      5646      5645      5647      5646      5645      5651
      5647      5645      5651      5648      5652      5653      5649      5648      5650
      5649      5648      5651      5649      5648      5652      5650      5648      5651
      5650      5648      5652      5651      5648      5652      5652      5653      5654
      5652      5653      5655      5652      5653      5656      5653      5656      5657
      5653      5656      5658      5653      5656      5664      5654      5653      5655
      5654      5653      5656      5655      5653      5656      5656      5658      5659
      5656      5664      5665      5656      5664      5666      5656      5664      5667
      5657      5656      5658      5657      5656      5664      5658      5656      5664
      5658      5659      5660      5658      5659      5661      5659      5661      5662
      5659      5661      5663      5659      5661      5673      5660      5659      5661
      5661      5673      5674      5661      5673      5675      5661      5673      5676
      5662      5661      5663      5662      5661      5673      5663      5661      5673
      5664      5667      5668      5665      5664      5666      5665      5664      5667
      5666      5664      5667      5667      5668      5669      5667      5668      5670
      5668      5670      5671      5668      5670      5672      5668      5670      5720
      5669      5668      5670      5670      5720      5721      5670      5720      5722
      5670      5720      5723      5671      5670      5672      5671      5670      5720
      5672      5670      5720      5673      5676      5677      5673      5676      5678
      5673      5676      5679      5674      5673      5675      5674      5673      5676
      5675      5673      5676      5676      5679      5680      5676      5679      5681
      5676      5679      5682      5677      5676      5678      5677      5676      5679
      5678      5676      5679      5679      5682      5683      5679      5682      5684
      5679      5682      5685      5680      5679      5681      5680      5679      5682
      5681      5679      5682      5682      5685      5686      5682      5685      5687
      5682      5685      5688      5683      5682      5684      5683      5682      5685
      5684      5682      5685      5685      5688      5689      5685      5688      5690
      5685      5688      5691      5686      5685      5687      5686      5685      5688
      5687      5685      5688      5688      5691      5692      5688      5691      5693
      5689      5688      5690      5689      5688      5691      5690      5688      5691
      5691      5693      5694      5691      5693      5695      5692      5691      5693
      5693      5695      5696      5693      5695      5697      5693      5695      5698
      5694      5693      5695      5695      5698      5699      5695      5698      5700
      5695      5698      5701      5696      5695      5697      5696      5695      5698
      5697      5695      5698      5698      5701      5702      5698      5701      5703
      5698      5701      5704      5699      5698      5700      5699      5698      5701
      5700      5698      5701      5701      5704      5705      5701      5704      5706
      5701      5704      5707      5702      5701      5703      5702      5701      5704
      5703      5701      5704      5704      5707      5708      5704      5707      5709
      5704      5707      5710      5705      5704      5706      5705      5704      5707
      5706      5704      5707      5707      5710      5711      5707      5710      5712
      5707      5710      5713      5708      5707      5709      5708      5707      5710
      5709      5707      5710      5710      5713      5714      5710      5713      5715
      5710      5713      5716      5711      5710      5712      5711      5710      5713
      5712      5710      5713      5713      5716      5717      5713      5716      5718
      5713      5716      5719      5714      5713      5715      5714      5713      5716
      5715      5713      5716      5717      5716      5718      5717      5716      5719
      5718      5716      5719      5720      5723      5724      5720      5723      5725
      5720      5723      5726      5721      5720      5722      5721      5720      5723
      5722      5720      5723      5723      5726      5727      5723      5726      5728
      5723      5726      5729      5724      5723      5725      5724      5723      5726
      5725      5723      5726      5726      5729      5730      5726      5729      5731
      5726      5729      5732      5727      5726      5728      5727      5726      5729
      5728      5726      5729      5729      5732      5733      5729      5732      5734
      5729      5732      5735      5730      5729      5731      5730      5729      5732
      5731      5729      5732      5732      5735      5736      5732      5735      5737
      5732      5735      5738      5733      5732      5734      5733      5732      5735
      5734      5732      5735      5735      5738      5739      5735      5738      5740
      5735      5738      5741      5736      5735      5737      5736      5735      5738
      5737      5735      5738      5738      5741      5742      5738      5741      5743
      5738      5741      5744      5739      5738      5740      5739      5738      5741
      5740      5738      5741      5741      5744      5745      5741      5744      5746
      5741      5744      5747      5742      5741      5743      5742      5741      5744
      5743      5741      5744      5744      5747      5748      5744      5747      5749
      5744      5747      5750      5745      5744      5746      5745      5744      5747
      5746      5744      5747      5747      5750      5751      5747      5750      5752
      5747      5750      5753      5748      5747      5749      5748      5747      5750
      5749      5747      5750      5750      5753      5754      5750      5753      5755
      5750      5753      5756      5751      5750      5752      5751      5750      5753
      5752      5750      5753      5753      5756      5757      5753      5756      5758
      5753      5756      5759      5754      5753      5755      5754      5753      5756
      5755      5753      5756      5756      5759      5760      5756      5759      5761
      5756      5759      5762      5757      5756      5758      5757      5756      5759
      5758      5756      5759      5760      5759      5761      5760      5759      5762
      5761      5759      5762      5763      5764      5765      5763      5764      5766
      5763      5764      5779      5763      5767      5768      5763      5767      5769
      5763      5767      5770      5763      5771      5772      5763      5771      5773
      5763      5771      5774      5763      5775      5776      5763      5775      5777
      5763      5775      5778      5764      5763      5767      5764      5763      5771
      5764      5763      5775      5764      5779      5780      5764      5779      5781
      5764      5779      5785      5765      5764      5766      5765      5764      5779
      5766      5764      5779      5767      5763      5771      5767      5763      5775
      5768      5767      5769      5768      5767      5770      5769      5767      5770
      5771      5763      5775      5772      5771      5773      5772      5771      5774
      5773      5771      5774      5776      5775      5777      5776      5775      5778
      5777      5775      5778      5779      5785      5782      5780      5779      5781
      5780      5779      5785      5781      5779      5785      5782      5786      5787
      5783      5782      5784      5783      5782      5785      5783      5782      5786
      5784      5782      5785      5784      5782      5786      5785      5782      5786
      5786      5787      5788      5786      5787      5789      5786      5787      5790
      5787      5790      5791      5787      5790      5792      5787      5790      5798
      5788      5787      5789      5788      5787      5790      5789      5787      5790
      5790      5792      5793      5790      5798      5799      5790      5798      5800
      5790      5798      5801      5791      5790      5792      5791      5790      5798
      5792      5790      5798      5792      5793      5794      5792      5793      5795
      5793      5795      5796      5793      5795      5797      5793      5795      5807
      5794      5793      5795      5795      5807      5808      5795      5807      5809
      5795      5807      5810      5796      5795      5797      5796      5795      5807
      5797      5795      5807      5798      5801      5802      5799      5798      5800
      5799      5798      5801      5800      5798      5801      5801      5802      5803
      5801      5802      5804      5802      5804      5805      5802      5804      5806
      5802      5804      5854      5803      5802      5804      5804      5854      5855
      5804      5854      5856      5804      5854      5857      5805      5804      5806
      5805      5804      5854      5806      5804      5854      5807      5810      5811
      5807      5810      5812      5807      5810      5813      5808      5807      5809
      5808      5807      5810      5809      5807      5810      5810      5813      5814
      5810      5813      5815      5810      5813      5816      5811      5810      5812
      5811      5810      5813      5812      5810      5813      5813      5816      5817
      5813      5816      5818      5813      5816      5819      5814      5813      5815
      5814      5813      5816      5815      5813      5816      5816      5819      5820
      5816      5819      5821      5816      5819      5822      5817      5816      5818
      5817      5816      5819      5818      5816      5819      5819      5822      5823
      5819      5822      5824      5819      5822      5825      5820      5819      5821
      5820      5819      5822      5821      5819      5822      5822      5825      5826
      5822      5825      5827      5823      5822      5824      5823      5822      5825
      5824      5822      5825      5825      5827      5828      5825      5827      5829
      5826      5825      5827      5827      5829      5830      5827      5829      5831
      5827      5829      5832      5828      5827      5829      5829      5832      5833
      5829      5832      5834      5829      5832      5835      5830      5829      5831
      5830      5829      5832      5831      5829      5832      5832      5835      5836
      5832      5835      5837      5832      5835      5838      5833      5832      5834
      5833      5832      5835      5834      5832      5835      5835      5838      5839
      5835      5838      5840      5835      5838      5841      5836      5835      5837
      5836      5835      5838      5837      5835      5838      5838      5841      5842
      5838      5841      5843      5838      5841      5844      5839      5838      5840
      5839      5838      5841      5840      5838      5841      5841      5844      5845
      5841      5844      5846      5841      5844      5847      5842      5841      5843
      5842      5841      5844      5843      5841      5844      5844      5847      5848
      5844      5847      5849      5844      5847      5850      5845      5844      5846
      5845      5844      5847      5846      5844      5847      5847      5850      5851
      5847      5850      5852      5847      5850      5853      5848      5847      5849
      5848      5847      5850      5849      5847      5850      5851      5850      5852
      5851      5850      5853      5852      5850      5853      5854      5857      5858
      5854      5857      5859      5854      5857      5860      5855      5854      5856
      5855      5854      5857      5856      5854      5857      5857      5860      5861
      5857      5860      5862      5857      5860      5863      5858      5857      5859
      5858      5857      5860      5859      5857      5860      5860      5863      5864
      5860      5863      5865      5860      5863      5866      5861      5860      5862
      5861      5860      5863      5862      5860      5863      5863      5866      5867
      5863      5866      5868      5863      5866      5869      5864      5863      5865
      5864      5863      5866      5865      5863      5866      5866      5869      5870
      5866      5869      5871      5866      5869      5872      5867      5866      5868
      5867      5866      5869      5868      5866      5869      5869      5872      5873
      5869      5872      5874      5869      5872      5875      5870      5869      5871
      5870      5869      5872      5871      5869      5872      5872      5875      5876
      5872      5875      5877      5872      5875      5878      5873      5872      5874
      5873      5872      5875      5874      5872      5875      5875      5878      5879
      5875      5878      5880      5875      5878      5881      5876      5875      5877
      5876      5875      5878      5877      5875      5878      5878      5881      5882
      5878      5881      5883      5878      5881      5884      5879      5878      5880
      5879      5878      5881      5880      5878      5881      5881      5884      5885
      5881      5884      5886      5881      5884      5887      5882      5881      5883
      5882      5881      5884      5883      5881      5884      5884      5887      5888
      5884      5887      5889      5884      5887      5890      5885      5884      5886
      5885      5884      5887      5886      5884      5887      5887      5890      5891
      5887      5890      5892      5887      5890      5893      5888      5887      5889
      5888      5887      5890      5889      5887      5890      5890      5893      5894
      5890      5893      5895      5890      5893      5896      5891      5890      5892
      5891      5890      5893      5892      5890      5893      5894      5893      5895
      5894      5893      5896      5895      5893      5896      5897      5898      5899
      5897      5898      5900      5897      5898      5913      5897      5901      5902
      5897      5901      5903      5897      5901      5904      5897      5905      5906
      5897      5905      5907      5897      5905      5908      5897      5909      5910
      5897      5909      5911      5897      5909      5912      5898      5897      5901
      5898      5897      5905      5898      5897      5909      5898      5913      5914
      5898      5913      5915      5898      5913      5919      5899      5898      5900
      5899      5898      5913      5900      5898      5913      5901      5897      5905
      5901      5897      5909      5902      5901      5903      5902      5901      5904
      5903      5901      5904      5905      5897      5909      5906      5905      5907
      5906      5905      5908      5907      5905      5908      5910      5909      5911
      5910      5909      5912      5911      5909      5912      5913      5919      5916
      5914      5913      5915      5914      5913      5919      5915      5913      5919
      5916      5920      5921      5917      5916      5918      5917      5916      5919
      5917      5916      5920      5918      5916      5919      5918      5916      5920
      5919      5916      5920      5920      5921      5922      5920      5921      5923
      5920      5921      5924      5921      5924      5925      5921      5924      5926
      5921      5924      5932      5922      5921      5923      5922      5921      5924
      5923      5921      5924      5924      5926      5927      5924      5932      5933
      5924      5932      5934      5924      5932      5935      5925      5924      5926
      5925      5924      5932      5926      5924      5932      5926      5927      5928
      5926      5927      5929      5927      5929      5930      5927      5929      5931
      5927      5929      5941      5928      5927      5929      5929      5941      5942
      5929      5941      5943      5929      5941      5944      5930      5929      5931
      5930      5929      5941      5931      5929      5941      5932      5935      5936
      5933      5932      5934      5933      5932      5935      5934      5932      5935
      5935      5936      5937      5935      5936      5938      5936      5938      5939
      5936      5938      5940      5936      5938      5988      5937      5936      5938
      5938      5988      5989      5938      5988      5990      5938      5988      5991
      5939      5938      5940      5939      5938      5988      5940      5938      5988
      5941      5944      5945      5941      5944      5946      5941      5944      5947
      5942      5941      5943      5942      5941      5944      5943      5941      5944
      5944      5947      5948      5944      5947      5949      5944      5947      5950
      5945      5944      5946      5945      5944      5947      5946      5944      5947
      5947      5950      5951      5947      5950      5952      5947      5950      5953
      5948      5947      5949      5948      5947      5950      5949      5947      5950
      5950      5953      5954      5950      5953      5955      5950      5953      5956
      5951      5950      5952      5951      5950      5953      5952      5950      5953
      5953      5956      5957      5953      5956      5958      5953      5956      5959
      5954      5953      5955      5954      5953      5956      5955      5953      5956
      5956      5959      5960      5956      5959      5961      5957      5956      5958
      5957      5956      5959      5958      5956      5959      5959      5961      5962
      5959      5961      5963      5960      5959      5961      5961      5963      5964
      5961      5963      5965      5961      5963      5966      5962      5961      5963
      5963      5966      5967      5963      5966      5968      5963      5966      5969
      5964      5963      5965      5964      5963      5966      5965      5963      5966
      5966      5969      5970      5966      5969      5971      5966      5969      5972
      5967      5966      5968      5967      5966      5969      5968      5966      5969
      5969      5972      5973      5969      5972      5974      5969      5972      5975
      5970      5969      5971      5970      5969      5972      5971      5969      5972
      5972      5975      5976      5972      5975      5977      5972      5975      5978
      5973      5972      5974      5973      5972      5975      5974      5972      5975
      5975      5978      5979      5975      5978      5980      5975      5978      5981
      5976      5975      5977      5976      5975      5978      5977      5975      5978
      5978      5981      5982      5978      5981      5983      5978      5981      5984
      5979      5978      5980      5979      5978      5981      5980      5978      5981
      5981      5984      5985      5981      5984      5986      5981      5984      5987
      5982      5981      5983      5982      5981      5984      5983      5981      5984
      5985      5984      5986      5985      5984      5987      5986      5984      5987
      5988      5991      5992      5988      5991      5993      5988      5991      5994
      5989      5988      5990      5989      5988      5991      5990      5988      5991
      5991      5994      5995      5991      5994      5996      5991      5994      5997
      5992      5991      5993      5992      5991      5994      5993      5991      5994
      5994      5997      5998      5994      5997      5999      5994      5997      6000
      5995      5994      5996      5995      5994      5997      5996      5994      5997
      5997      6000      6001      5997      6000      6002      5997      6000      6003
      5998      5997      5999      5998      5997      6000      5999      5997      6000
      6000      6003      6004      6000      6003      6005      6000      6003      6006
      6001      6000      6002      6001      6000      6003      6002      6000      6003
      6003      6006      6007      6003      6006      6008      6003      6006      6009
      6004      6003      6005      6004      6003      6006      6005      6003      6006
      6006      6009      6010      6006      6009      6011      6006      6009      6012
      6007      6006      6008      6007      6006      6009      6008      6006      6009
      6009      6012      6013      6009      6012      6014      6009      6012      6015
      6010      6009      6011      6010      6009      6012      6011      6009      6012
      6012      6015      6016      6012      6015      6017      6012      6015      6018
      6013      6012      6014      6013      6012      6015      6014      6012      6015
      6015      6018      6019      6015      6018      6020      6015      6018      6021
      6016      6015      6017      6016      6015      6018      6017      6015      6018
      6018      6021      6022      6018      6021      6023      6018      6021      6024
      6019      6018      6020      6019      6018      6021      6020      6018      6021
      6021      6024      6025      6021      6024      6026      6021      6024      6027
      6022      6021      6023      6022      6021      6024      6023      6021      6024
      6024      6027      6028      6024      6027      6029      6024      6027      6030
      6025      6024      6026      6025      6024      6027      6026      6024      6027
      6028      6027      6029      6028      6027      6030      6029      6027      6030
      6031      6032      6033      6031      6032      6034      6031      6032      6047
      6031      6035      6036      6031      6035      6037      6031      6035      6038
      6031      6039      6040      6031      6039      6041      6031      6039      6042
      6031      6043      6044      6031      6043      6045      6031      6043      6046
      6032      6031      6035      6032      6031      6039      6032      6031      6043
      6032      6047      6048      6032      6047      6049      6032      6047      6053
      6033      6032      6034      6033      6032      6047      6034      6032      6047
      6035      6031      6039      6035      6031      6043      6036      6035      6037
      6036      6035      6038      6037      6035      6038      6039      6031      6043
      6040      6039      6041      6040      6039      6042      6041      6039      6042
      6044      6043      6045      6044      6043      6046      6045      6043      6046
      6047      6053      6050      6048      6047      6049      6048      6047      6053
      6049      6047      6053      6050      6054      6055      6051      6050      6052
      6051      6050      6053      6051      6050      6054      6052      6050      6053
      6052      6050      6054      6053      6050      6054      6054      6055      6056
      6054      6055      6057      6054      6055      6058      6055      6058      6059
      6055      6058      6060      6055      6058      6066      6056      6055      6057
      6056      6055      6058      6057      6055      6058      6058      6060      6061
      6058      6066      6067      6058      6066      6068      6058      6066      6069
      6059      6058      6060      6059      6058      6066      6060      6058      6066
      6060      6061      6062      6060      6061      6063      6061      6063      6064
      6061      6063      6065      6061      6063      6075      6062      6061      6063
      6063      6075      6076      6063      6075      6077      6063      6075      6078
      6064      6063      6065      6064      6063      6075      6065      6063      6075
      6066      6069      6070      6067      6066      6068      6067      6066      6069
      6068      6066      6069      6069      6070      6071      6069      6070      6072
      6070      6072      6073      6070      6072      6074      6070      6072      6122
      6071      6070      6072      6072      6122      6123      6072      6122      6124
      6072      6122      6125      6073      6072      6074      6073      6072      6122
      6074      6072      6122      6075      6078      6079      6075      6078      6080
      6075      6078      6081      6076      6075      6077      6076      6075      6078
      6077      6075      6078      6078      6081      6082      6078      6081      6083
      6078      6081      6084      6079      6078      6080      6079      6078      6081
      6080      6078      6081      6081      6084      6085      6081      6084      6086
      6081      6084      6087      6082      6081      6083      6082      6081      6084
      6083      6081      6084      6084      6087      6088      6084      6087      6089
      6084      6087      6090      6085      6084      6086      6085      6084      6087
      6086      6084      6087      6087      6090      6091      6087      6090      6092
      6087      6090      6093      6088      6087      6089      6088      6087      6090
      6089      6087      6090      6090      6093      6094      6090      6093      6095
      6091      6090      6092      6091      6090      6093      6092      6090      6093
      6093      6095      6096      6093      6095      6097      6094      6093      6095
      6095      6097      6098      6095      6097      6099      6095      6097      6100
      6096      6095      6097      6097      6100      6101      6097      6100      6102
      6097      6100      6103      6098      6097      6099      6098      6097      6100
      6099      6097      6100      6100      6103      6104      6100      6103      6105
      6100      6103      6106      6101      6100      6102      6101      6100      6103
      6102      6100      6103      6103      6106      6107      6103      6106      6108
      6103      6106      6109      6104      6103      6105      6104      6103      6106
      6105      6103      6106      6106      6109      6110      6106      6109      6111
      6106      6109      6112      6107      6106      6108      6107      6106      6109
      6108      6106      6109      6109      6112      6113      6109      6112      6114
      6109      6112      6115      6110      6109      6111      6110      6109      6112
      6111      6109      6112      6112      6115      6116      6112      6115      6117
      6112      6115      6118      6113      6112      6114      6113      6112      6115
      6114      6112      6115      6115      6118      6119      6115      6118      6120
      6115      6118      6121      6116      6115      6117      6116      6115      6118
      6117      6115      6118      6119      6118      6120      6119      6118      6121
      6120      6118      6121      6122      6125      6126      6122      6125      6127
      6122      6125      6128      6123      6122      6124      6123      6122      6125
      6124      6122      6125      6125      6128      6129      6125      6128      6130
      6125      6128      6131      6126      6125      6127      6126      6125      6128
      6127      6125      6128      6128      6131      6132      6128      6131      6133
      6128      6131      6134      6129      6128      6130      6129      6128      6131
      6130      6128      6131      6131      6134      6135      6131      6134      6136
      6131      6134      6137      6132      6131      6133      6132      6131      6134
      6133      6131      6134      6134      6137      6138      6134      6137      6139
      6134      6137      6140      6135      6134      6136      6135      6134      6137
      6136      6134      6137      6137      6140      6141      6137      6140      6142
      6137      6140      6143      6138      6137      6139      6138      6137      6140
      6139      6137      6140      6140      6143      6144      6140      6143      6145
      6140      6143      6146      6141      6140      6142      6141      6140      6143
      6142      6140      6143      6143      6146      6147      6143      6146      6148
      6143      6146      6149      6144      6143      6145      6144      6143      6146
      6145      6143      6146      6146      6149      6150      6146      6149      6151
      6146      6149      6152      6147      6146      6148      6147      6146      6149
      6148      6146      6149      6149      6152      6153      6149      6152      6154
      6149      6152      6155      6150      6149      6151      6150      6149      6152
      6151      6149      6152      6152      6155      6156      6152      6155      6157
      6152      6155      6158      6153      6152      6154      6153      6152      6155
      6154      6152      6155      6155      6158      6159      6155      6158      6160
      6155      6158      6161      6156      6155      6157      6156      6155      6158
      6157      6155      6158      6158      6161      6162      6158      6161      6163
      6158      6161      6164      6159      6158      6160      6159      6158      6161
      6160      6158      6161      6162      6161      6163      6162      6161      6164
      6163      6161      6164      6165      6166      6167      6165      6166      6168
      6165      6166      6181      6165      6169      6170      6165      6169      6171
      6165      6169      6172      6165      6173      6174      6165      6173      6175
      6165      6173      6176      6165      6177      6178      6165      6177      6179
      6165      6177      6180      6166      6165      6169      6166      6165      6173
      6166      6165      6177      6166      6181      6182      6166      6181      6183
      6166      6181      6187      6167      6166      6168      6167      6166      6181
      6168      6166      6181      6169      6165      6173      6169      6165      6177
      6170      6169      6171      6170      6169      6172      6171      6169      6172
      6173      6165      6177      6174      6173      6175      6174      6173      6176
      6175      6173      6176      6178      6177      6179      6178      6177      6180
      6179      6177      6180      6181      6187      6184      6182      6181      6183
      6182      6181      6187      6183      6181      6187      6184      6188      6189
      6185      6184      6186      6185      6184      6187      6185      6184      6188
      6186      6184      6187      6186      6184      6188      6187      6184      6188
      6188      6189      6190      6188      6189      6191      6188      6189      6192
      6189      6192      6193      6189      6192      6194      6189      6192      6200
      6190      6189      6191      6190      6189      6192      6191      6189      6192
      6192      6194      6195      6192      6200      6201      6192      6200      6202
      6192      6200      6203      6193      6192      6194      6193      6192      6200
      6194      6192      6200      6194      6195      6196      6194      6195      6197
      6195      6197      6198      6195      6197      6199      6195      6197      6209
      6196      6195      6197      6197      6209      6210      6197      6209      6211
      6197      6209      6212      6198      6197      6199      6198      6197      6209
      6199      6197      6209      6200      6203      6204      6201      6200      6202
      6201      6200      6203      6202      6200      6203      6203      6204      6205
      6203      6204      6206      6204      6206      6207      6204      6206      6208
      6204      6206      6256      6205      6204      6206      6206      6256      6257
      6206      6256      6258      6206      6256      6259      6207      6206      6208
      6207      6206      6256      6208      6206      6256      6209      6212      6213
      6209      6212      6214      6209      6212      6215      6210      6209      6211
      6210      6209      6212      6211      6209      6212      6212      6215      6216
      6212      6215      6217      6212      6215      6218      6213      6212      6214
      6213      6212      6215      6214      6212      6215      6215      6218      6219
      6215      6218      6220      6215      6218      6221      6216      6215      6217
      6216      6215      6218      6217      6215      6218      6218      6221      6222
      6218      6221      6223      6218      6221      6224      6219      6218      6220
      6219      6218      6221      6220      6218      6221      6221      6224      6225
      6221      6224      6226      6221      6224      6227      6222      6221      6223
      6222      6221      6224      6223      6221      6224      6224      6227      6228
      6224      6227      6229      6225      6224      6226      6225      6224      6227
      6226      6224      6227      6227      6229      6230      6227      6229      6231
      6228      6227      6229      6229      6231      6232      6229      6231      6233
      6229      6231      6234      6230      6229      6231      6231      6234      6235
      6231      6234      6236      6231      6234      6237      6232      6231      6233
      6232      6231      6234      6233      6231      6234      6234      6237      6238
      6234      6237      6239      6234      6237      6240      6235      6234      6236
      6235      6234      6237      6236      6234      6237      6237      6240      6241
      6237      6240      6242      6237      6240      6243      6238      6237      6239
      6238      6237      6240      6239      6237      6240      6240      6243      6244
      6240      6243      6245      6240      6243      6246      6241      6240      6242
      6241      6240      6243      6242      6240      6243      6243      6246      6247
      6243      6246      6248      6243      6246      6249      6244      6243      6245
      6244      6243      6246      6245      6243      6246      6246      6249      6250
      6246      6249      6251      6246      6249      6252      6247      6246      6248
      6247      6246      6249      6248      6246      6249      6249      6252      6253
      6249      6252      6254      6249      6252      6255      6250      6249      6251
      6250      6249      6252      6251      6249      6252      6253      6252      6254
      6253      6252      6255      6254      6252      6255      6256      6259      6260
      6256      6259      6261      6256      6259      6262      6257      6256      6258
      6257      6256      6259      6258      6256      6259      6259      6262      6263
      6259      6262      6264      6259      6262      6265      6260      6259      6261
      6260      6259      6262      6261      6259      6262      6262      6265      6266
      6262      6265      6267      6262      6265      6268      6263      6262      6264
      6263      6262      6265      6264      6262      6265      6265      6268      6269
      6265      6268      6270      6265      6268      6271      6266      6265      6267
      6266      6265      6268      6267      6265      6268      6268      6271      6272
      6268      6271      6273      6268      6271      6274      6269      6268      6270
      6269      6268      6271      6270      6268      6271      6271      6274      6275
      6271      6274      6276      6271      6274      6277      6272      6271      6273
      6272      6271      6274      6273      6271      6274      6274      6277      6278
      6274      6277      6279      6274      6277      6280      6275      6274      6276
      6275      6274      6277      6276      6274      6277      6277      6280      6281
      6277      6280      6282      6277      6280      6283      6278      6277      6279
      6278      6277      6280      6279      6277      6280      6280      6283      6284
      6280      6283      6285      6280      6283      6286      6281      6280      6282
      6281      6280      6283      6282      6280      6283      6283      6286      6287
      6283      6286      6288      6283      6286      6289      6284      6283      6285
      6284      6283      6286      6285      6283      6286      6286      6289      6290
      6286      6289      6291      6286      6289      6292      6287      6286      6288
      6287      6286      6289      6288      6286      6289      6289      6292      6293
      6289      6292      6294      6289      6292      6295      6290      6289      6291
      6290      6289      6292      6291      6289      6292      6292      6295      6296
      6292      6295      6297      6292      6295      6298      6293      6292      6294
      6293      6292      6295      6294      6292      6295      6296      6295      6297
      6296      6295      6298      6297      6295      6298      6299      6300      6301
      6299      6300      6302      6299      6300      6315      6299      6303      6304
      6299      6303      6305      6299      6303      6306      6299      6307      6308
      6299      6307      6309      6299      6307      6310      6299      6311      6312
      6299      6311      6313      6299      6311      6314      6300      6299      6303
      6300      6299      6307      6300      6299      6311      6300      6315      6316
      6300      6315      6317      6300      6315      6321      6301      6300      6302
      6301      6300      6315      6302      6300      6315      6303      6299      6307
      6303      6299      6311      6304      6303      6305      6304      6303      6306
      6305      6303      6306      6307      6299      6311      6308      6307      6309
      6308      6307      6310      6309      6307      6310      6312      6311      6313
      6312      6311      6314      6313      6311      6314      6315      6321      6318
      6316      6315      6317      6316      6315      6321      6317      6315      6321
      6318      6322      6323      6319      6318      6320      6319      6318      6321
      6319      6318      6322      6320      6318      6321      6320      6318      6322
      6321      6318      6322      6322      6323      6324      6322      6323      6325
      6322      6323      6326      6323      6326      6327      6323      6326      6328
      6323      6326      6334      6324      6323      6325      6324      6323      6326
      6325      6323      6326      6326      6328      6329      6326      6334      6335
      6326      6334      6336      6326      6334      6337      6327      6326      6328
      6327      6326      6334      6328      6326      6334      6328      6329      6330
      6328      6329      6331      6329      6331      6332      6329      6331      6333
      6329      6331      6343      6330      6329      6331      6331      6343      6344
      6331      6343      6345      6331      6343      6346      6332      6331      6333
      6332      6331      6343      6333      6331      6343      6334      6337      6338
      6335      6334      6336      6335      6334      6337      6336      6334      6337
      6337      6338      6339      6337      6338      6340      6338      6340      6341
      6338      6340      6342      6338      6340      6390      6339      6338      6340
      6340      6390      6391      6340      6390      6392      6340      6390      6393
      6341      6340      6342      6341      6340      6390      6342      6340      6390
      6343      6346      6347      6343      6346      6348      6343      6346      6349
      6344      6343      6345      6344      6343      6346      6345      6343      6346
      6346      6349      6350      6346      6349      6351      6346      6349      6352
      6347      6346      6348      6347      6346      6349      6348      6346      6349
      6349      6352      6353      6349      6352      6354      6349      6352      6355
      6350      6349      6351      6350      6349      6352      6351      6349      6352
      6352      6355      6356      6352      6355      6357      6352      6355      6358
      6353      6352      6354      6353      6352      6355      6354      6352      6355
      6355      6358      6359      6355      6358      6360      6355      6358      6361
      6356      6355      6357      6356      6355      6358      6357      6355      6358
      6358      6361      6362      6358      6361      6363      6359      6358      6360
      6359      6358      6361      6360      6358      6361      6361      6363      6364
      6361      6363      6365      6362      6361      6363      6363      6365      6366
      6363      6365      6367      6363      6365      6368      6364      6363      6365
      6365      6368      6369      6365      6368      6370      6365      6368      6371
      6366      6365      6367      6366      6365      6368      6367      6365      6368
      6368      6371      6372      6368      6371      6373      6368      6371      6374
      6369      6368      6370      6369      6368      6371      6370      6368      6371
      6371      6374      6375      6371      6374      6376      6371      6374      6377
      6372      6371      6373      6372      6371      6374      6373      6371      6374
      6374      6377      6378      6374      6377      6379      6374      6377      6380
      6375      6374      6376      6375      6374      6377      6376      6374      6377
      6377      6380      6381      6377      6380      6382      6377      6380      6383
      6378      6377      6379      6378      6377      6380      6379      6377      6380
      6380      6383      6384      6380      6383      6385      6380      6383      6386
      6381      6380      6382      6381      6380      6383      6382      6380      6383
      6383      6386      6387      6383      6386      6388      6383      6386      6389
      6384      6383      6385      6384      6383      6386      6385      6383      6386
      6387      6386      6388      6387      6386      6389      6388      6386      6389
      6390      6393      6394      6390      6393      6395      6390      6393      6396
      6391      6390      6392      6391      6390      6393      6392      6390      6393
      6393      6396      6397      6393      6396      6398      6393      6396      6399
      6394      6393      6395      6394      6393      6396      6395      6393      6396
      6396      6399      6400      6396      6399      6401      6396      6399      6402
      6397      6396      6398      6397      6396      6399      6398      6396      6399
      6399      6402      6403      6399      6402      6404      6399      6402      6405
      6400      6399      6401      6400      6399      6402      6401      6399      6402
      6402      6405      6406      6402      6405      6407      6402      6405      6408
      6403      6402      6404      6403      6402      6405      6404      6402      6405
      6405      6408      6409      6405      6408      6410      6405      6408      6411
      6406      6405      6407      6406      6405      6408      6407      6405      6408
      6408      6411      6412      6408      6411      6413      6408      6411      6414
      6409      6408      6410      6409      6408      6411      6410      6408      6411
      6411      6414      6415      6411      6414      6416      6411      6414      6417
      6412      6411      6413      6412      6411      6414      6413      6411      6414
      6414      6417      6418      6414      6417      6419      6414      6417      6420
      6415      6414      6416      6415      6414      6417      6416      6414      6417
      6417      6420      6421      6417      6420      6422      6417      6420      6423
      6418      6417      6419      6418      6417      6420      6419      6417      6420
      6420      6423      6424      6420      6423      6425      6420      6423      6426
      6421      6420      6422      6421      6420      6423      6422      6420      6423
      6423      6426      6427      6423      6426      6428      6423      6426      6429
      6424      6423      6425      6424      6423      6426      6425      6423      6426
      6426      6429      6430      6426      6429      6431      6426      6429      6432
      6427      6426      6428      6427      6426      6429      6428      6426      6429
      6430      6429      6431      6430      6429      6432      6431      6429      6432
      6433      6434      6435      6433      6434      6436      6433      6434      6449
      6433      6437      6438      6433      6437      6439      6433      6437      6440
      6433      6441      6442      6433      6441      6443      6433      6441      6444
      6433      6445      6446      6433      6445      6447      6433      6445      6448
      6434      6433      6437      6434      6433      6441      6434      6433      6445
      6434      6449      6450      6434      6449      6451      6434      6449      6455
      6435      6434      6436      6435      6434      6449      6436      6434      6449
      6437      6433      6441      6437      6433      6445      6438      6437      6439
      6438      6437      6440      6439      6437      6440      6441      6433      6445
      6442      6441      6443      6442      6441      6444      6443      6441      6444
      6446      6445      6447      6446      6445      6448      6447      6445      6448
      6449      6455      6452      6450      6449      6451      6450      6449      6455
      6451      6449      6455      6452      6456      6457      6453      6452      6454
      6453      6452      6455      6453      6452      6456      6454      6452      6455
      6454      6452      6456      6455      6452      6456      6456      6457      6458
      6456      6457      6459      6456      6457      6460      6457      6460      6461
      6457      6460      6462      6457      6460      6468      6458      6457      6459
      6458      6457      6460      6459      6457      6460      6460      6462      6463
      6460      6468      6469      6460      6468      6470      6460      6468      6471
      6461      6460      6462      6461      6460      6468      6462      6460      6468
      6462      6463      6464      6462      6463      6465      6463      6465      6466
      6463      6465      6467      6463      6465      6477      6464      6463      6465
      6465      6477      6478      6465      6477      6479      6465      6477      6480
      6466      6465      6467      6466      6465      6477      6467      6465      6477
      6468      6471      6472      6469      6468      6470      6469      6468      6471
      6470      6468      6471      6471      6472      6473      6471      6472      6474
      6472      6474      6475      6472      6474      6476      6472      6474      6524
      6473      6472      6474      6474      6524      6525      6474      6524      6526
      6474      6524      6527      6475      6474      6476      6475      6474      6524
      6476      6474      6524      6477      6480      6481      6477      6480      6482
      6477      6480      6483      6478      6477      6479      6478      6477      6480
      6479      6477      6480      6480      6483      6484      6480      6483      6485
      6480      6483      6486      6481      6480      6482      6481      6480      6483
      6482      6480      6483      6483      6486      6487      6483      6486      6488
      6483      6486      6489      6484      6483      6485      6484      6483      6486
      6485      6483      6486      6486      6489      6490      6486      6489      6491
      6486      6489      6492      6487      6486      6488      6487      6486      6489
      6488      6486      6489      6489      6492      6493      6489      6492      6494
      6489      6492      6495      6490      6489      6491      6490      6489      6492
      6491      6489      6492      6492      6495      6496      6492      6495      6497
      6493      6492      6494      6493      6492      6495      6494      6492      6495
      6495      6497      6498      6495      6497      6499      6496      6495      6497
      6497      6499      6500      6497      6499      6501      6497      6499      6502
      6498      6497      6499      6499      6502      6503      6499      6502      6504
      6499      6502      6505      6500      6499      6501      6500      6499      6502
      6501      6499      6502      6502      6505      6506      6502      6505      6507
      6502      6505      6508      6503      6502      6504      6503      6502      6505
      6504      6502      6505      6505      6508      6509      6505      6508      6510
      6505      6508      6511      6506      6505      6507      6506      6505      6508
      6507      6505      6508      6508      6511      6512      6508      6511      6513
      6508      6511      6514      6509      6508      6510      6509      6508      6511
      6510      6508      6511      6511      6514      6515      6511      6514      6516
      6511      6514      6517      6512      6511      6513      6512      6511      6514
      6513      6511      6514      6514      6517      6518      6514      6517      6519
      6514      6517      6520      6515      6514      6516      6515      6514      6517
      6516      6514      6517      6517      6520      6521      6517      6520      6522
      6517      6520      6523      6518      6517      6519      6518      6517      6520
      6519      6517      6520      6521      6520      6522      6521      6520      6523
      6522      6520      6523      6524      6527      6528      6524      6527      6529
      6524      6527      6530      6525      6524      6526      6525      6524      6527
      6526      6524      6527      6527      6530      6531      6527      6530      6532
      6527      6530      6533      6528      6527      6529      6528      6527      6530
      6529      6527      6530      6530      6533      6534      6530      6533      6535
      6530      6533      6536      6531      6530      6532      6531      6530      6533
      6532      6530      6533      6533      6536      6537      6533      6536      6538
      6533      6536      6539      6534      6533      6535      6534      6533      6536
      6535      6533      6536      6536      6539      6540      6536      6539      6541
      6536      6539      6542      6537      6536      6538      6537      6536      6539
      6538      6536      6539      6539      6542      6543      6539      6542      6544
      6539      6542      6545      6540      6539      6541      6540      6539      6542
      6541      6539      6542      6542      6545      6546      6542      6545      6547
      6542      6545      6548      6543      6542      6544      6543      6542      6545
      6544      6542      6545      6545      6548      6549      6545      6548      6550
      6545      6548      6551      6546      6545      6547      6546      6545      6548
      6547      6545      6548      6548      6551      6552      6548      6551      6553
      6548      6551      6554      6549      6548      6550      6549      6548      6551
      6550      6548      6551      6551      6554      6555      6551      6554      6556
      6551      6554      6557      6552      6551      6553      6552      6551      6554
      6553      6551      6554      6554      6557      6558      6554      6557      6559
      6554      6557      6560      6555      6554      6556      6555      6554      6557
      6556      6554      6557      6557      6560      6561      6557      6560      6562
      6557      6560      6563      6558      6557      6559      6558      6557      6560
      6559      6557      6560      6560      6563      6564      6560      6563      6565
      6560      6563      6566      6561      6560      6562      6561      6560      6563
      6562      6560      6563      6564      6563      6565      6564      6563      6566
      6565      6563      6566      6567      6568      6569      6567      6568      6570
      6567      6568      6583      6567      6571      6572      6567      6571      6573
      6567      6571      6574      6567      6575      6576      6567      6575      6577
      6567      6575      6578      6567      6579      6580      6567      6579      6581
      6567      6579      6582      6568      6567      6571      6568      6567      6575
      6568      6567      6579      6568      6583      6584      6568      6583      6585
      6568      6583      6589      6569      6568      6570      6569      6568      6583
      6570      6568      6583      6571      6567      6575      6571      6567      6579
      6572      6571      6573      6572      6571      6574      6573      6571      6574
      6575      6567      6579      6576      6575      6577      6576      6575      6578
      6577      6575      6578      6580      6579      6581      6580      6579      6582
      6581      6579      6582      6583      6589      6586      6584      6583      6585
      6584      6583      6589      6585      6583      6589      6586      6590      6591
      6587      6586      6588      6587      6586      6589      6587      6586      6590
      6588      6586      6589      6588      6586      6590      6589      6586      6590
      6590      6591      6592      6590      6591      6593      6590      6591      6594
      6591      6594      6595      6591      6594      6596      6591      6594      6602
      6592      6591      6593      6592      6591      6594      6593      6591      6594
      6594      6596      6597      6594      6602      6603      6594      6602      6604
      6594      6602      6605      6595      6594      6596      6595      6594      6602
      6596      6594      6602      6596      6597      6598      6596      6597      6599
      6597      6599      6600      6597      6599      6601      6597      6599      6611
      6598      6597      6599      6599      6611      6612      6599      6611      6613
      6599      6611      6614      6600      6599      6601      6600      6599      6611
      6601      6599      6611      6602      6605      6606      6603      6602      6604
      6603      6602      6605      6604      6602      6605      6605      6606      6607
      6605      6606      6608      6606      6608      6609      6606      6608      6610
      6606      6608      6658      6607      6606      6608      6608      6658      6659
      6608      6658      6660      6608      6658      6661      6609      6608      6610
      6609      6608      6658      6610      6608      6658      6611      6614      6615
      6611      6614      6616      6611      6614      6617      6612      6611      6613
      6612      6611      6614      6613      6611      6614      6614      6617      6618
      6614      6617      6619      6614      6617      6620      6615      6614      6616
      6615      6614      6617      6616      6614      6617      6617      6620      6621
      6617      6620      6622      6617      6620      6623      6618      6617      6619
      6618      6617      6620      6619      6617      6620      6620      6623      6624
      6620      6623      6625      6620      6623      6626      6621      6620      6622
      6621      6620      6623      6622      6620      6623      6623      6626      6627
      6623      6626      6628      6623      6626      6629      6624      6623      6625
      6624      6623      6626      6625      6623      6626      6626      6629      6630
      6626      6629      6631      6627      6626      6628      6627      6626      6629
      6628      6626      6629      6629      6631      6632      6629      6631      6633
      6630      6629      6631      6631      6633      6634      6631      6633      6635
      6631      6633      6636      6632      6631      6633      6633      6636      6637
      6633      6636      6638      6633      6636      6639      6634      6633      6635
      6634      6633      6636      6635      6633      6636      6636      6639      6640
      6636      6639      6641      6636      6639      6642      6637      6636      6638
      6637      6636      6639      6638      6636      6639      6639      6642      6643
      6639      6642      6644      6639      6642      6645      6640      6639      6641
      6640      6639      6642      6641      6639      6642      6642      6645      6646
      6642      6645      6647      6642      6645      6648      6643      6642      6644
      6643      6642      6645      6644      6642      6645      6645      6648      6649
      6645      6648      6650      6645      6648      6651      6646      6645      6647
      6646      6645      6648      6647      6645      6648      6648      6651      6652
      6648      6651      6653      6648      6651      6654      6649      6648      6650
      6649      6648      6651      6650      6648      6651      6651      6654      6655
      6651      6654      6656      6651      6654      6657      6652      6651      6653
      6652      6651      6654      6653      6651      6654      6655      6654      6656
      6655      6654      6657      6656      6654      6657      6658      6661      6662
      6658      6661      6663      6658      6661      6664      6659      6658      6660
      6659      6658      6661      6660      6658      6661      6661      6664      6665
      6661      6664      6666      6661      6664      6667      6662      6661      6663
      6662      6661      6664      6663      6661      6664      6664      6667      6668
      6664      6667      6669      6664      6667      6670      6665      6664      6666
      6665      6664      6667      6666      6664      6667      6667      6670      6671
      6667      6670      6672      6667      6670      6673      6668      6667      6669
      6668      6667      6670      6669      6667      6670      6670      6673      6674
      6670      6673      6675      6670      6673      6676      6671      6670      6672
      6671      6670      6673      6672      6670      6673      6673      6676      6677
      6673      6676      6678      6673      6676      6679      6674      6673      6675
      6674      6673      6676      6675      6673      6676      6676      6679      6680
      6676      6679      6681      6676      6679      6682      6677      6676      6678
      6677      6676      6679      6678      6676      6679      6679      6682      6683
      6679      6682      6684      6679      6682      6685      6680      6679      6681
      6680      6679      6682      6681      6679      6682      6682      6685      6686
      6682      6685      6687      6682      6685      6688      6683      6682      6684
      6683      6682      6685      6684      6682      6685      6685      6688      6689
      6685      6688      6690      6685      6688      6691      6686      6685      6687
      6686      6685      6688      6687      6685      6688      6688      6691      6692
      6688      6691      6693      6688      6691      6694      6689      6688      6690
      6689      6688      6691      6690      6688      6691      6691      6694      6695
      6691      6694      6696      6691      6694      6697      6692      6691      6693
      6692      6691      6694      6693      6691      6694      6694      6697      6698
      6694      6697      6699      6694      6697      6700      6695      6694      6696
      6695      6694      6697      6696      6694      6697      6698      6697      6699
      6698      6697      6700      6699      6697      6700      6701      6702      6703
      6701      6702      6704      6701      6702      6717      6701      6705      6706
      6701      6705      6707      6701      6705      6708      6701      6709      6710
      6701      6709      6711      6701      6709      6712      6701      6713      6714
      6701      6713      6715      6701      6713      6716      6702      6701      6705
      6702      6701      6709      6702      6701      6713      6702      6717      6718
      6702      6717      6719      6702      6717      6723      6703      6702      6704
      6703      6702      6717      6704      6702      6717      6705      6701      6709
      6705      6701      6713      6706      6705      6707      6706      6705      6708
      6707      6705      6708      6709      6701      6713      6710      6709      6711
      6710      6709      6712      6711      6709      6712      6714      6713      6715
      6714      6713      6716      6715      6713      6716      6717      6723      6720
      6718      6717      6719      6718      6717      6723      6719      6717      6723
      6720      6724      6725      6721      6720      6722      6721      6720      6723
      6721      6720      6724      6722      6720      6723      6722      6720      6724
      6723      6720      6724      6724      6725      6726      6724      6725      6727
      6724      6725      6728      6725      6728      6729      6725      6728      6730
      6725      6728      6736      6726      6725      6727      6726      6725      6728
      6727      6725      6728      6728      6730      6731      6728      6736      6737
      6728      6736      6738      6728      6736      6739      6729      6728      6730
      6729      6728      6736      6730      6728      6736      6730      6731      6732
      6730      6731      6733      6731      6733      6734      6731      6733      6735
      6731      6733      6745      6732      6731      6733      6733      6745      6746
      6733      6745      6747      6733      6745      6748      6734      6733      6735
      6734      6733      6745      6735      6733      6745      6736      6739      6740
      6737      6736      6738      6737      6736      6739      6738      6736      6739
      6739      6740      6741      6739      6740      6742      6740      6742      6743
      6740      6742      6744      6740      6742      6792      6741      6740      6742
      6742      6792      6793      6742      6792      6794      6742      6792      6795
      6743      6742      6744      6743      6742      6792      6744      6742      6792
      6745      6748      6749      6745      6748      6750      6745      6748      6751
      6746      6745      6747      6746      6745      6748      6747      6745      6748
      6748      6751      6752      6748      6751      6753      6748      6751      6754
      6749      6748      6750      6749      6748      6751      6750      6748      6751
      6751      6754      6755      6751      6754      6756      6751      6754      6757
      6752      6751      6753      6752      6751      6754      6753      6751      6754
      6754      6757      6758      6754      6757      6759      6754      6757      6760
      6755      6754      6756      6755      6754      6757      6756      6754      6757
      6757      6760      6761      6757      6760      6762      6757      6760      6763
      6758      6757      6759      6758      6757      6760      6759      6757      6760
      6760      6763      6764      6760      6763      6765      6761      6760      6762
      6761      6760      6763      6762      6760      6763      6763      6765      6766
      6763      6765      6767      6764      6763      6765      6765      6767      6768
      6765      6767      6769      6765      6767      6770      6766      6765      6767
      6767      6770      6771      6767      6770      6772      6767      6770      6773
      6768      6767      6769      6768      6767      6770      6769      6767      6770
      6770      6773      6774      6770      6773      6775      6770      6773      6776
      6771      6770      6772      6771      6770      6773      6772      6770      6773
      6773      6776      6777      6773      6776      6778      6773      6776      6779
      6774      6773      6775      6774      6773      6776      6775      6773      6776
      6776      6779      6780      6776      6779      6781      6776      6779      6782
      6777      6776      6778      6777      6776      6779      6778      6776      6779
      6779      6782      6783      6779      6782      6784      6779      6782      6785
      6780      6779      6781      6780      6779      6782      6781      6779      6782
      6782      6785      6786      6782      6785      6787      6782      6785      6788
      6783      6782      6784      6783      6782      6785      6784      6782      6785
      6785      6788      6789      6785      6788      6790      6785      6788      6791
      6786      6785      6787      6786      6785      6788      6787      6785      6788
      6789      6788      6790      6789      6788      6791      6790      6788      6791
      6792      6795      6796      6792      6795      6797      6792      6795      6798
      6793      6792      6794      6793      6792      6795      6794      6792      6795
      6795      6798      6799      6795      6798      6800      6795      6798      6801
      6796      6795      6797      6796      6795      6798      6797      6795      6798
      6798      6801      6802      6798      6801      6803      6798      6801      6804
      6799      6798      6800      6799      6798      6801      6800      6798      6801
      6801      6804      6805      6801      6804      6806      6801      6804      6807
      6802      6801      6803      6802      6801      6804      6803      6801      6804
      6804      6807      6808      6804      6807      6809      6804      6807      6810
      6805      6804      6806      6805      6804      6807      6806      6804      6807
      6807      6810      6811      6807      6810      6812      6807      6810      6813
      6808      6807      6809      6808      6807      6810      6809      6807      6810
      6810      6813      6814      6810      6813      6815      6810      6813      6816
      6811      6810      6812      6811      6810      6813      6812      6810      6813
      6813      6816      6817      6813      6816      6818      6813      6816      6819
      6814      6813      6815      6814      6813      6816      6815      6813      6816
      6816      6819      6820      6816      6819      6821      6816      6819      6822
      6817      6816      6818      6817      6816      6819      6818      6816      6819
      6819      6822      6823      6819      6822      6824      6819      6822      6825
      6820      6819      6821      6820      6819      6822      6821      6819      6822
      6822      6825      6826      6822      6825      6827      6822      6825      6828
      6823      6822      6824      6823      6822      6825      6824      6822      6825
      6825      6828      6829      6825      6828      6830      6825      6828      6831
      6826      6825      6827      6826      6825      6828      6827      6825      6828
      6828      6831      6832      6828      6831      6833      6828      6831      6834
      6829      6828      6830      6829      6828      6831      6830      6828      6831
      6832      6831      6833      6832      6831      6834      6833      6831      6834
      6835      6836      6837      6835      6836      6838      6835      6836      6851
      6835      6839      6840      6835      6839      6841      6835      6839      6842
      6835      6843      6844      6835      6843      6845      6835      6843      6846
      6835      6847      6848      6835      6847      6849      6835      6847      6850
      6836      6835      6839      6836      6835      6843      6836      6835      6847
      6836      6851      6852      6836      6851      6853      6836      6851      6857
      6837      6836      6838      6837      6836      6851      6838      6836      6851
      6839      6835      6843      6839      6835      6847      6840      6839      6841
      6840      6839      6842      6841      6839      6842      6843      6835      6847
      6844      6843      6845      6844      6843      6846      6845      6843      6846
      6848      6847      6849      6848      6847      6850      6849      6847      6850
      6851      6857      6854      6852      6851      6853      6852      6851      6857
      6853      6851      6857      6854      6858      6859      6855      6854      6856
      6855      6854      6857      6855      6854      6858      6856      6854      6857
      6856      6854      6858      6857      6854      6858      6858      6859      6860
      6858      6859      6861      6858      6859      6862      6859      6862      6863
      6859      6862      6864      6859      6862      6870      6860      6859      6861
      6860      6859      6862      6861      6859      6862      6862      6864      6865
      6862      6870      6871      6862      6870      6872      6862      6870      6873
      6863      6862      6864      6863      6862      6870      6864      6862      6870
      6864      6865      6866      6864      6865      6867      6865      6867      6868
      6865      6867      6869      6865      6867      6879      6866      6865      6867
      6867      6879      6880      6867      6879      6881      6867      6879      6882
      6868      6867      6869      6868      6867      6879      6869      6867      6879
      6870      6873      6874      6871      6870      6872      6871      6870      6873
      6872      6870      6873      6873      6874      6875      6873      6874      6876
      6874      6876      6877      6874      6876      6878      6874      6876      6926
      6875      6874      6876      6876      6926      6927      6876      6926      6928
      6876      6926      6929      6877      6876      6878      6877      6876      6926
      6878      6876      6926      6879      6882      6883      6879      6882      6884
      6879      6882      6885      6880      6879      6881      6880      6879      6882
      6881      6879      6882      6882      6885      6886      6882      6885      6887
      6882      6885      6888      6883      6882      6884      6883      6882      6885
      6884      6882      6885      6885      6888      6889      6885      6888      6890
      6885      6888      6891      6886      6885      6887      6886      6885      6888
      6887      6885      6888      6888      6891      6892      6888      6891      6893
      6888      6891      6894      6889      6888      6890      6889      6888      6891
      6890      6888      6891      6891      6894      6895      6891      6894      6896
      6891      6894      6897      6892      6891      6893      6892      6891      6894
      6893      6891      6894      6894      6897      6898      6894      6897      6899
      6895      6894      6896      6895      6894      6897      6896      6894      6897
      6897      6899      6900      6897      6899      6901      6898      6897      6899
      6899      6901      6902      6899      6901      6903      6899      6901      6904
      6900      6899      6901      6901      6904      6905      6901      6904      6906
      6901      6904      6907      6902      6901      6903      6902      6901      6904
      6903      6901      6904      6904      6907      6908      6904      6907      6909
      6904      6907      6910      6905      6904      6906      6905      6904      6907
      6906      6904      6907      6907      6910      6911      6907      6910      6912
      6907      6910      6913      6908      6907      6909      6908      6907      6910
      6909      6907      6910      6910      6913      6914      6910      6913      6915
      6910      6913      6916      6911      6910      6912      6911      6910      6913
      6912      6910      6913      6913      6916      6917      6913      6916      6918
      6913      6916      6919      6914      6913      6915      6914      6913      6916
      6915      6913      6916      6916      6919      6920      6916      6919      6921
      6916      6919      6922      6917      6916      6918      6917      6916      6919
      6918      6916      6919      6919      6922      6923      6919      6922      6924
      6919      6922      6925      6920      6919      6921      6920      6919      6922
      6921      6919      6922      6923      6922      6924      6923      6922      6925
      6924      6922      6925      6926      6929      6930      6926      6929      6931
      6926      6929      6932      6927      6926      6928      6927      6926      6929
      6928      6926      6929      6929      6932      6933      6929      6932      6934
      6929      6932      6935      6930      6929      6931      6930      6929      6932
      6931      6929      6932      6932      6935      6936      6932      6935      6937
      6932      6935      6938      6933      6932      6934      6933      6932      6935
      6934      6932      6935      6935      6938      6939      6935      6938      6940
      6935      6938      6941      6936      6935      6937      6936      6935      6938
      6937      6935      6938      6938      6941      6942      6938      6941      6943
      6938      6941      6944      6939      6938      6940      6939      6938      6941
      6940      6938      6941      6941      6944      6945      6941      6944      6946
      6941      6944      6947      6942      6941      6943      6942      6941      6944
      6943      6941      6944      6944      6947      6948      6944      6947      6949
      6944      6947      6950      6945      6944      6946      6945      6944      6947
      6946      6944      6947      6947      6950      6951      6947      6950      6952
      6947      6950      6953      6948      6947      6949      6948      6947      6950
      6949      6947      6950      6950      6953      6954      6950      6953      6955
      6950      6953      6956      6951      6950      6952      6951      6950      6953
      6952      6950      6953      6953      6956      6957      6953      6956      6958
      6953      6956      6959      6954      6953      6955      6954      6953      6956
      6955      6953      6956      6956      6959      6960      6956      6959      6961
      6956      6959      6962      6957      6956      6958      6957      6956      6959
      6958      6956      6959      6959      6962      6963      6959      6962      6964
      6959      6962      6965      6960      6959      6961      6960      6959      6962
      6961      6959      6962      6962      6965      6966      6962      6965      6967
      6962      6965      6968      6963      6962      6964      6963      6962      6965
      6964      6962      6965      6966      6965      6967      6966      6965      6968
      6967      6965      6968      6969      6970      6971      6969      6970      6972
      6969      6970      6985      6969      6973      6974      6969      6973      6975
      6969      6973      6976      6969      6977      6978      6969      6977      6979
      6969      6977      6980      6969      6981      6982      6969      6981      6983
      6969      6981      6984      6970      6969      6973      6970      6969      6977
      6970      6969      6981      6970      6985      6986      6970      6985      6987
      6970      6985      6991      6971      6970      6972      6971      6970      6985
      6972      6970      6985      6973      6969      6977      6973      6969      6981
      6974      6973      6975      6974      6973      6976      6975      6973      6976
      6977      6969      6981      6978      6977      6979      6978      6977      6980
      6979      6977      6980      6982      6981      6983      6982      6981      6984
      6983      6981      6984      6985      6991      6988      6986      6985      6987
      6986      6985      6991      6987      6985      6991      6988      6992      6993
      6989      6988      6990      6989      6988      6991      6989      6988      6992
      6990      6988      6991      6990      6988      6992      6991      6988      6992
      6992      6993      6994      6992      6993      6995      6992      6993      6996
      6993      6996      6997      6993      6996      6998      6993      6996      7004
      6994      6993      6995      6994      6993      6996      6995      6993      6996
      6996      6998      6999      6996      7004      7005      6996      7004      7006
      6996      7004      7007      6997      6996      6998      6997      6996      7004
      6998      6996      7004      6998      6999      7000      6998      6999      7001
      6999      7001      7002      6999      7001      7003      6999      7001      7013
      7000      6999      7001      7001      7013      7014      7001      7013      7015
      7001      7013      7016      7002      7001      7003      7002      7001      7013
      7003      7001      7013      7004      7007      7008      7005      7004      7006
      7005      7004      7007      7006      7004      7007      7007      7008      7009
      7007      7008      7010      7008      7010      7011      7008      7010      7012
      7008      7010      7060      7009      7008      7010      7010      7060      7061
      7010      7060      7062      7010      7060      7063      7011      7010      7012
      7011      7010      7060      7012      7010      7060      7013      7016      7017
      7013      7016      7018      7013      7016      7019      7014      7013      7015
      7014      7013      7016      7015      7013      7016      7016      7019      7020
      7016      7019      7021      7016      7019      7022      7017      7016      7018
      7017      7016      7019      7018      7016      7019      7019      7022      7023
      7019      7022      7024      7019      7022      7025      7020      7019      7021
      7020      7019      7022      7021      7019      7022      7022      7025      7026
      7022      7025      7027      7022      7025      7028      7023      7022      7024
      7023      7022      7025      7024      7022      7025      7025      7028      7029
      7025      7028      7030      7025      7028      7031      7026      7025      7027
      7026      7025      7028      7027      7025      7028      7028      7031      7032
      7028      7031      7033      7029      7028      7030      7029      7028      7031
      7030      7028      7031      7031      7033      7034      7031      7033      7035
      7032      7031      7033      7033      7035      7036      7033      7035      7037
      7033      7035      7038      7034      7033      7035      7035      7038      7039
      7035      7038      7040      7035      7038      7041      7036      7035      7037
      7036      7035      7038      7037      7035      7038      7038      7041      7042
      7038      7041      7043      7038      7041      7044      7039      7038      7040
      7039      7038      7041      7040      7038      7041      7041      7044      7045
      7041      7044      7046      7041      7044      7047      7042      7041      7043
      7042      7041      7044      7043      7041      7044      7044      7047      7048
      7044      7047      7049      7044      7047      7050      7045      7044      7046
      7045      7044      7047      7046      7044      7047      7047      7050      7051
      7047      7050      7052      7047      7050      7053      7048      7047      7049
      7048      7047      7050      7049      7047      7050      7050      7053      7054
      7050      7053      7055      7050      7053      7056      7051      7050      7052
      7051      7050      7053      7052      7050      7053      7053      7056      7057
      7053      7056      7058      7053      7056      7059      7054      7053      7055
      7054      7053      7056      7055      7053      7056      7057      7056      7058
      7057      7056      7059      7058      7056      7059      7060      7063      7064
      7060      7063      7065      7060      7063      7066      7061      7060      7062
      7061      7060      7063      7062      7060      7063      7063      7066      7067
      7063      7066      7068      7063      7066      7069      7064      7063      7065
      7064      7063      7066      7065      7063      7066      7066      7069      7070
      7066      7069      7071      7066      7069      7072      7067      7066      7068
      7067      7066      7069      7068      7066      7069      7069      7072      7073
      7069      7072      7074      7069      7072      7075      7070      7069      7071
      7070      7069      7072      7071      7069      7072      7072      7075      7076
      7072      7075      7077      7072      7075      7078      7073      7072      7074
      7073      7072      7075      7074      7072      7075      7075      7078      7079
      7075      7078      7080      7075      7078      7081      7076      7075      7077
      7076      7075      7078      7077      7075      7078      7078      7081      7082
      7078      7081      7083      7078      7081      7084      7079      7078      7080
      7079      7078      7081      7080      7078      7081      7081      7084      7085
      7081      7084      7086      7081      7084      7087      7082      7081      7083
      7082      7081      7084      7083      7081      7084      7084      7087      7088
      7084      7087      7089      7084      7087      7090      7085      7084      7086
      7085      7084      7087      7086      7084      7087      7087      7090      7091
      7087      7090      7092      7087      7090      7093      7088      7087      7089
      7088      7087      7090      7089      7087      7090      7090      7093      7094
      7090      7093      7095      7090      7093      7096      7091      7090      7092
      7091      7090      7093      7092      7090      7093      7093      7096      7097
      7093      7096      7098      7093      7096      7099      7094      7093      7095
      7094      7093      7096      7095      7093      7096      7096      7099      7100
      7096      7099      7101      7096      7099      7102      7097      7096      7098
      7097      7096      7099      7098      7096      7099      7100      7099      7101
      7100      7099      7102      7101      7099      7102      7103      7104      7105
      7103      7104      7106      7103      7104      7119      7103      7107      7108
      7103      7107      7109      7103      7107      7110      7103      7111      7112
      7103      7111      7113      7103      7111      7114      7103      7115      7116
      7103      7115      7117      7103      7115      7118      7104      7103      7107
      7104      7103      7111      7104      7103      7115      7104      7119      7120
      7104      7119      7121      7104      7119      7125      7105      7104      7106
      7105      7104      7119      7106      7104      7119      7107      7103      7111
      7107      7103      7115      7108      7107      7109      7108      7107      7110
      7109      7107      7110      7111      7103      7115      7112      7111      7113
      7112      7111      7114      7113      7111      7114      7116      7115      7117
      7116      7115      7118      7117      7115      7118      7119      7125      7122
      7120      7119      7121      7120      7119      7125      7121      7119      7125
      7122      7126      7127      7123      7122      7124      7123      7122      7125
      7123      7122      7126      7124      7122      7125      7124      7122      7126
      7125      7122      7126      7126      7127      7128      7126      7127      7129
      7126      7127      7130      7127      7130      7131      7127      7130      7132
      7127      7130      7138      7128      7127      7129      7128      7127      7130
      7129      7127      7130      7130      7132      7133      7130      7138      7139
      7130      7138      7140      7130      7138      7141      7131      7130      7132
      7131      7130      7138      7132      7130      7138      7132      7133      7134
      7132      7133      7135      7133      7135      7136      7133      7135      7137
      7133      7135      7147      7134      7133      7135      7135      7147      7148
      7135      7147      7149      7135      7147      7150      7136      7135      7137
      7136      7135      7147      7137      7135      7147      7138      7141      7142
      7139      7138      7140      7139      7138      7141      7140      7138      7141
      7141      7142      7143      7141      7142      7144      7142      7144      7145
      7142      7144      7146      7142      7144      7194      7143      7142      7144
      7144      7194      7195      7144      7194      7196      7144      7194      7197
      7145      7144      7146      7145      7144      7194      7146      7144      7194
      7147      7150      7151      7147      7150      7152      7147      7150      7153
      7148      7147      7149      7148      7147      7150      7149      7147      7150
      7150      7153      7154      7150      7153      7155      7150      7153      7156
      7151      7150      7152      7151      7150      7153      7152      7150      7153
      7153      7156      7157      7153      7156      7158      7153      7156      7159
      7154      7153      7155      7154      7153      7156      7155      7153      7156
      7156      7159      7160      7156      7159      7161      7156      7159      7162
      7157      7156      7158      7157      7156      7159      7158      7156      7159
      7159      7162      7163      7159      7162      7164      7159      7162      7165
      7160      7159      7161      7160      7159      7162      7161      7159      7162
      7162      7165      7166      7162      7165      7167      7163      7162      7164
      7163      7162      7165      7164      7162      7165      7165      7167      7168
      7165      7167      7169      7166      7165      7167      7167      7169      7170
      7167      7169      7171      7167      7169      7172      7168      7167      7169
      7169      7172      7173      7169      7172      7174      7169      7172      7175
      7170      7169      7171      7170      7169      7172      7171      7169      7172
      7172      7175      7176      7172      7175      7177      7172      7175      7178
      7173      7172      7174      7173      7172      7175      7174      7172      7175
      7175      7178      7179      7175      7178      7180      7175      7178      7181
      7176      7175      7177      7176      7175      7178      7177      7175      7178
      7178      7181      7182      7178      7181      7183      7178      7181      7184
      7179      7178      7180      7179      7178      7181      7180      7178      7181
      7181      7184      7185      7181      7184      7186      7181      7184      7187
      7182      7181      7183      7182      7181      7184      7183      7181      7184
      7184      7187      7188      7184      7187      7189      7184      7187      7190
      7185      7184      7186      7185      7184      7187      7186      7184      7187
      7187      7190      7191      7187      7190      7192      7187      7190      7193
      7188      7187      7189      7188      7187      7190      7189      7187      7190
      7191      7190      7192      7191      7190      7193      7192      7190      7193
      7194      7197      7198      7194      7197      7199      7194      7197      7200
      7195      7194      7196      7195      7194      7197      7196      7194      7197
      7197      7200      7201      7197      7200      7202      7197      7200      7203
      7198      7197      7199      7198      7197      7200      7199      7197      7200
      7200      7203      7204      7200      7203      7205      7200      7203      7206
      7201      7200      7202      7201      7200      7203      7202      7200      7203
      7203      7206      7207      7203      7206      7208      7203      7206      7209
      7204      7203      7205      7204      7203      7206      7205      7203      7206
      7206      7209      7210      7206      7209      7211      7206      7209      7212
      7207      7206      7208      7207      7206      7209      7208      7206      7209
      7209      7212      7213      7209      7212      7214      7209      7212      7215
      7210      7209      7211      7210      7209      7212      7211      7209      7212
      7212      7215      7216      7212      7215      7217      7212      7215      7218
      7213      7212      7214      7213      7212      7215      7214      7212      7215
      7215      7218      7219      7215      7218      7220      7215      7218      7221
      7216      7215      7217      7216      7215      7218      7217      7215      7218
      7218      7221      7222      7218      7221      7223      7218      7221      7224
      7219      7218      7220      7219      7218      7221      7220      7218      7221
      7221      7224      7225      7221      7224      7226      7221      7224      7227
      7222      7221      7223      7222      7221      7224      7223      7221      7224
      7224      7227      7228      7224      7227      7229      7224      7227      7230
      7225      7224      7226      7225      7224      7227      7226      7224      7227
      7227      7230      7231      7227      7230      7232      7227      7230      7233
      7228      7227      7229      7228      7227      7230      7229      7227      7230
      7230      7233      7234      7230      7233      7235      7230      7233      7236
      7231      7230      7232      7231      7230      7233      7232      7230      7233
      7234      7233      7235      7234      7233      7236      7235      7233      7236
      7237      7238      7239      7237      7238      7240      7237      7238      7253
      7237      7241      7242      7237      7241      7243      7237      7241      7244
      7237      7245      7246      7237      7245      7247      7237      7245      7248
      7237      7249      7250      7237      7249      7251      7237      7249      7252
      7238      7237      7241      7238      7237      7245      7238      7237      7249
      7238      7253      7254      7238      7253      7255      7238      7253      7259
      7239      7238      7240      7239      7238      7253      7240      7238      7253
      7241      7237      7245      7241      7237      7249      7242      7241      7243
      7242      7241      7244      7243      7241      7244      7245      7237      7249
      7246      7245      7247      7246      7245      7248      7247      7245      7248
      7250      7249      7251      7250      7249      7252      7251      7249      7252
      7253      7259      7256      7254      7253      7255      7254      7253      7259
      7255      7253      7259      7256      7260      7261      7257      7256      7258
      7257      7256      7259      7257      7256      7260      7258      7256      7259
      7258      7256      7260      7259      7256      7260      7260      7261      7262
      7260      7261      7263      7260      7261      7264      7261      7264      7265
      7261      7264      7266      7261      7264      7272      7262      7261      7263
      7262      7261      7264      7263      7261      7264      7264      7266      7267
      7264      7272      7273      7264      7272      7274      7264      7272      7275
      7265      7264      7266      7265      7264      7272      7266      7264      7272
      7266      7267      7268      7266      7267      7269      7267      7269      7270
      7267      7269      7271      7267      7269      7281      7268      7267      7269
      7269      7281      7282      7269      7281      7283      7269      7281      7284
      7270      7269      7271      7270      7269      7281      7271      7269      7281
      7272      7275      7276      7273      7272      7274      7273      7272      7275
      7274      7272      7275      7275      7276      7277      7275      7276      7278
      7276      7278      7279      7276      7278      7280      7276      7278      7328
      7277      7276      7278      7278      7328      7329      7278      7328      7330
      7278      7328      7331      7279      7278      7280      7279      7278      7328
      7280      7278      7328      7281      7284      7285      7281      7284      7286
      7281      7284      7287      7282      7281      7283      7282      7281      7284
      7283      7281      7284      7284      7287      7288      7284      7287      7289
      7284      7287      7290      7285      7284      7286      7285      7284      7287
      7286      7284      7287      7287      7290      7291      7287      7290      7292
      7287      7290      7293      7288      7287      7289      7288      7287      7290
      7289      7287      7290      7290      7293      7294      7290      7293      7295
      7290      7293      7296      7291      7290      7292      7291      7290      7293
      7292      7290      7293      7293      7296      7297      7293      7296      7298
      7293      7296      7299      7294      7293      7295      7294      7293      7296
      7295      7293      7296      7296      7299      7300      7296      7299      7301
      7297      7296      7298      7297      7296      7299      7298      7296      7299
      7299      7301      7302      7299      7301      7303      7300      7299      7301
      7301      7303      7304      7301      7303      7305      7301      7303      7306
      7302      7301      7303      7303      7306      7307      7303      7306      7308
      7303      7306      7309      7304      7303      7305      7304      7303      7306
      7305      7303      7306      7306      7309      7310      7306      7309      7311
      7306      7309      7312      7307      7306      7308      7307      7306      7309
      7308      7306      7309      7309      7312      7313      7309      7312      7314
      7309      7312      7315      7310      7309      7311      7310      7309      7312
      7311      7309      7312      7312      7315      7316      7312      7315      7317
      7312      7315      7318      7313      7312      7314      7313      7312      7315
      7314      7312      7315      7315      7318      7319      7315      7318      7320
      7315      7318      7321      7316      7315      7317      7316      7315      7318
      7317      7315      7318      7318      7321      7322      7318      7321      7323
      7318      7321      7324      7319      7318      7320      7319      7318      7321
      7320      7318      7321      7321      7324      7325      7321      7324      7326
      7321      7324      7327      7322      7321      7323      7322      7321      7324
      7323      7321      7324      7325      7324      7326      7325      7324      7327
      7326      7324      7327      7328      7331      7332      7328      7331      7333
      7328      7331      7334      7329      7328      7330      7329      7328      7331
      7330      7328      7331      7331      7334      7335      7331      7334      7336
      7331      7334      7337      7332      7331      7333      7332      7331      7334
      7333      7331      7334      7334      7337      7338      7334      7337      7339
      7334      7337      7340      7335      7334      7336      7335      7334      7337
      7336      7334      7337      7337      7340      7341      7337      7340      7342
      7337      7340      7343      7338      7337      7339      7338      7337      7340
      7339      7337      7340      7340      7343      7344      7340      7343      7345
      7340      7343      7346      7341      7340      7342      7341      7340      7343
      7342      7340      7343      7343      7346      7347      7343      7346      7348
      7343      7346      7349      7344      7343      7345      7344      7343      7346
      7345      7343      7346      7346      7349      7350      7346      7349      7351
      7346      7349      7352      7347      7346      7348      7347      7346      7349
      7348      7346      7349      7349      7352      7353      7349      7352      7354
      7349      7352      7355      7350      7349      7351      7350      7349      7352
      7351      7349      7352      7352      7355      7356      7352      7355      7357
      7352      7355      7358      7353      7352      7354      7353      7352      7355
      7354      7352      7355      7355      7358      7359      7355      7358      7360
      7355      7358      7361      7356      7355      7357      7356      7355      7358
      7357      7355      7358      7358      7361      7362      7358      7361      7363
      7358      7361      7364      7359      7358      7360      7359      7358      7361
      7360      7358      7361      7361      7364      7365      7361      7364      7366
      7361      7364      7367      7362      7361      7363      7362      7361      7364
      7363      7361      7364      7364      7367      7368      7364      7367      7369
      7364      7367      7370      7365      7364      7366      7365      7364      7367
      7366      7364      7367      7368      7367      7369      7368      7367      7370
      7369      7367      7370      7371      7372      7373      7371      7372      7374
      7371      7372      7387      7371      7375      7376      7371      7375      7377
      7371      7375      7378      7371      7379      7380      7371      7379      7381
      7371      7379      7382      7371      7383      7384      7371      7383      7385
      7371      7383      7386      7372      7371      7375      7372      7371      7379
      7372      7371      7383      7372      7387      7388      7372      7387      7389
      7372      7387      7393      7373      7372      7374      7373      7372      7387
      7374      7372      7387      7375      7371      7379      7375      7371      7383
      7376      7375      7377      7376      7375      7378      7377      7375      7378
      7379      7371      7383      7380      7379      7381      7380      7379      7382
      7381      7379      7382      7384      7383      7385      7384      7383      7386
      7385      7383      7386      7387      7393      7390      7388      7387      7389
      7388      7387      7393      7389      7387      7393      7390      7394      7395
      7391      7390      7392      7391      7390      7393      7391      7390      7394
      7392      7390      7393      7392      7390      7394      7393      7390      7394
      7394      7395      7396      7394      7395      7397      7394      7395      7398
      7395      7398      7399      7395      7398      7400      7395      7398      7406
      7396      7395      7397      7396      7395      7398      7397      7395      7398
      7398      7400      7401      7398      7406      7407      7398      7406      7408
      7398      7406      7409      7399      7398      7400      7399      7398      7406
      7400      7398      7406      7400      7401      7402      7400      7401      7403
      7401      7403      7404      7401      7403      7405      7401      7403      7415
      7402      7401      7403      7403      7415      7416      7403      7415      7417
      7403      7415      7418      7404      7403      7405      7404      7403      7415
      7405      7403      7415      7406      7409      7410      7407      7406      7408
      7407      7406      7409      7408      7406      7409      7409      7410      7411
      7409      7410      7412      7410      7412      7413      7410      7412      7414
      7410      7412      7462      7411      7410      7412      7412      7462      7463
      7412      7462      7464      7412      7462      7465      7413      7412      7414
      7413      7412      7462      7414      7412      7462      7415      7418      7419
      7415      7418      7420      7415      7418      7421      7416      7415      7417
      7416      7415      7418      7417      7415      7418      7418      7421      7422
      7418      7421      7423      7418      7421      7424      7419      7418      7420
      7419      7418      7421      7420      7418      7421      7421      7424      7425
      7421      7424      7426      7421      7424      7427      7422      7421      7423
      7422      7421      7424      7423      7421      7424      7424      7427      7428
      7424      7427      7429      7424      7427      7430      7425      7424      7426
      7425      7424      7427      7426      7424      7427      7427      7430      7431
      7427      7430      7432      7427      7430      7433      7428      7427      7429
      7428      7427      7430      7429      7427      7430      7430      7433      7434
      7430      7433      7435      7431      7430      7432      7431      7430      7433
      7432      7430      7433      7433      7435      7436      7433      7435      7437
      7434      7433      7435      7435      7437      7438      7435      7437      7439
      7435      7437      7440      7436      7435      7437      7437      7440      7441
      7437      7440      7442      7437      7440      7443      7438      7437      7439
      7438      7437      7440      7439      7437      7440      7440      7443      7444
      7440      7443      7445      7440      7443      7446      7441      7440      7442
      7441      7440      7443      7442      7440      7443      7443      7446      7447
      7443      7446      7448      7443      7446      7449      7444      7443      7445
      7444      7443      7446      7445      7443      7446      7446      7449      7450
      7446      7449      7451      7446      7449      7452      7447      7446      7448
      7447      7446      7449      7448      7446      7449      7449      7452      7453
      7449      7452      7454      7449      7452      7455      7450      7449      7451
      7450      7449      7452      7451      7449      7452      7452      7455      7456
      7452      7455      7457      7452      7455      7458      7453      7452      7454
      7453      7452      7455      7454      7452      7455      7455      7458      7459
      7455      7458      7460      7455      7458      7461      7456      7455      7457
      7456      7455      7458      7457      7455      7458      7459      7458      7460
      7459      7458      7461      7460      7458      7461      7462      7465      7466
      7462      7465      7467      7462      7465      7468      7463      7462      7464
      7463      7462      7465      7464      7462      7465      7465      7468      7469
      7465      7468      7470      7465      7468      7471      7466      7465      7467
      7466      7465      7468      7467      7465      7468      7468      7471      7472
      7468      7471      7473      7468      7471      7474      7469      7468      7470
      7469      7468      7471      7470      7468      7471      7471      7474      7475
      7471      7474      7476      7471      7474      7477      7472      7471      7473
      7472      7471      7474      7473      7471      7474      7474      7477      7478
      7474      7477      7479      7474      7477      7480      7475      7474      7476
      7475      7474      7477      7476      7474      7477      7477      7480      7481
      7477      7480      7482      7477      7480      7483      7478      7477      7479
      7478      7477      7480      7479      7477      7480      7480      7483      7484
      7480      7483      7485      7480      7483      7486      7481      7480      7482
      7481      7480      7483      7482      7480      7483      7483      7486      7487
      7483      7486      7488      7483      7486      7489      7484      7483      7485
      7484      7483      7486      7485      7483      7486      7486      7489      7490
      7486      7489      7491      7486      7489      7492      7487      7486      7488
      7487      7486      7489      7488      7486      7489      7489      7492      7493
      7489      7492      7494      7489      7492      7495      7490      7489      7491
      7490      7489      7492      7491      7489      7492      7492      7495      7496
      7492      7495      7497      7492      7495      7498      7493      7492      7494
      7493      7492      7495      7494      7492      7495      7495      7498      7499
      7495      7498      7500      7495      7498      7501      7496      7495      7497
      7496      7495      7498      7497      7495      7498      7498      7501      7502
      7498      7501      7503      7498      7501      7504      7499      7498      7500
      7499      7498      7501      7500      7498      7501      7502      7501      7503
      7502      7501      7504      7503      7501      7504      7505      7506      7507
      7505      7506      7508      7505      7506      7521      7505      7509      7510
      7505      7509      7511      7505      7509      7512      7505      7513      7514
      7505      7513      7515      7505      7513      7516      7505      7517      7518
      7505      7517      7519      7505      7517      7520      7506      7505      7509
      7506      7505      7513      7506      7505      7517      7506      7521      7522
      7506      7521      7523      7506      7521      7527      7507      7506      7508
      7507      7506      7521      7508      7506      7521      7509      7505      7513
      7509      7505      7517      7510      7509      7511      7510      7509      7512
      7511      7509      7512      7513      7505      7517      7514      7513      7515
      7514      7513      7516      7515      7513      7516      7518      7517      7519
      7518      7517      7520      7519      7517      7520      7521      7527      7524
      7522      7521      7523      7522      7521      7527      7523      7521      7527
      7524      7528      7529      7525      7524      7526      7525      7524      7527
      7525      7524      7528      7526      7524      7527      7526      7524      7528
      7527      7524      7528      7528      7529      7530      7528      7529      7531
      7528      7529      7532      7529      7532      7533      7529      7532      7534
      7529      7532      7540      7530      7529      7531      7530      7529      7532
      7531      7529      7532      7532      7534      7535      7532      7540      7541
      7532      7540      7542      7532      7540      7543      7533      7532      7534
      7533      7532      7540      7534      7532      7540      7534      7535      7536
      7534      7535      7537      7535      7537      7538      7535      7537      7539
      7535      7537      7549      7536      7535      7537      7537      7549      7550
      7537      7549      7551      7537      7549      7552      7538      7537      7539
      7538      7537      7549      7539      7537      7549      7540      7543      7544
      7541      7540      7542      7541      7540      7543      7542      7540      7543
      7543      7544      7545      7543      7544      7546      7544      7546      7547
      7544      7546      7548      7544      7546      7596      7545      7544      7546
      7546      7596      7597      7546      7596      7598      7546      7596      7599
      7547      7546      7548      7547      7546      7596      7548      7546      7596
      7549      7552      7553      7549      7552      7554      7549      7552      7555
      7550      7549      7551      7550      7549      7552      7551      7549      7552
      7552      7555      7556      7552      7555      7557      7552      7555      7558
      7553      7552      7554      7553      7552      7555      7554      7552      7555
      7555      7558      7559      7555      7558      7560      7555      7558      7561
      7556      7555      7557      7556      7555      7558      7557      7555      7558
      7558      7561      7562      7558      7561      7563      7558      7561      7564
      7559      7558      7560      7559      7558      7561      7560      7558      7561
      7561      7564      7565      7561      7564      7566      7561      7564      7567
      7562      7561      7563      7562      7561      7564      7563      7561      7564
      7564      7567      7568      7564      7567      7569      7565      7564      7566
      7565      7564      7567      7566      7564      7567      7567      7569      7570
      7567      7569      7571      7568      7567      7569      7569      7571      7572
      7569      7571      7573      7569      7571      7574      7570      7569      7571
      7571      7574      7575      7571      7574      7576      7571      7574      7577
      7572      7571      7573      7572      7571      7574      7573      7571      7574
      7574      7577      7578      7574      7577      7579      7574      7577      7580
      7575      7574      7576      7575      7574      7577      7576      7574      7577
      7577      7580      7581      7577      7580      7582      7577      7580      7583
      7578      7577      7579      7578      7577      7580      7579      7577      7580
      7580      7583      7584      7580      7583      7585      7580      7583      7586
      7581      7580      7582      7581      7580      7583      7582      7580      7583
      7583      7586      7587      7583      7586      7588      7583      7586      7589
      7584      7583      7585      7584      7583      7586      7585      7583      7586
      7586      7589      7590      7586      7589      7591      7586      7589      7592
      7587      7586      7588      7587      7586      7589      7588      7586      7589
      7589      7592      7593      7589      7592      7594      7589      7592      7595
      7590      7589      7591      7590      7589      7592      7591      7589      7592
      7593      7592      7594      7593      7592      7595      7594      7592      7595
      7596      7599      7600      7596      7599      7601      7596      7599      7602
      7597      7596      7598      7597      7596      7599      7598      7596      7599
      7599      7602      7603      7599      7602      7604      7599      7602      7605
      7600      7599      7601      7600      7599      7602      7601      7599      7602
      7602      7605      7606      7602      7605      7607      7602      7605      7608
      7603      7602      7604      7603      7602      7605      7604      7602      7605
      7605      7608      7609      7605      7608      7610      7605      7608      7611
      7606      7605      7607      7606      7605      7608      7607      7605      7608
      7608      7611      7612      7608      7611      7613      7608      7611      7614
      7609      7608      7610      7609      7608      7611      7610      7608      7611
      7611      7614      7615      7611      7614      7616      7611      7614      7617
      7612      7611      7613      7612      7611      7614      7613      7611      7614
      7614      7617      7618      7614      7617      7619      7614      7617      7620
      7615      7614      7616      7615      7614      7617      7616      7614      7617
      7617      7620      7621      7617      7620      7622      7617      7620      7623
      7618      7617      7619      7618      7617      7620      7619      7617      7620
      7620      7623      7624      7620      7623      7625      7620      7623      7626
      7621      7620      7622      7621      7620      7623      7622      7620      7623
      7623      7626      7627      7623      7626      7628      7623      7626      7629
      7624      7623      7625      7624      7623      7626      7625      7623      7626
      7626      7629      7630      7626      7629      7631      7626      7629      7632
      7627      7626      7628      7627      7626      7629      7628      7626      7629
      7629      7632      7633      7629      7632      7634      7629      7632      7635
      7630      7629      7631      7630      7629      7632      7631      7629      7632
      7632      7635      7636      7632      7635      7637      7632      7635      7638
      7633      7632      7634      7633      7632      7635      7634      7632      7635
      7636      7635      7637      7636      7635      7638      7637      7635      7638
      7639      7640      7641      7639      7640      7642      7639      7640      7655
      7639      7643      7644      7639      7643      7645      7639      7643      7646
      7639      7647      7648      7639      7647      7649      7639      7647      7650
      7639      7651      7652      7639      7651      7653      7639      7651      7654
      7640      7639      7643      7640      7639      7647      7640      7639      7651
      7640      7655      7656      7640      7655      7657      7640      7655      7661
      7641      7640      7642      7641      7640      7655      7642      7640      7655
      7643      7639      7647      7643      7639      7651      7644      7643      7645
      7644      7643      7646      7645      7643      7646      7647      7639      7651
      7648      7647      7649      7648      7647      7650      7649      7647      7650
      7652      7651      7653      7652      7651      7654      7653      7651      7654
      7655      7661      7658      7656      7655      7657      7656      7655      7661
      7657      7655      7661      7658      7662      7663      7659      7658      7660
      7659      7658      7661      7659      7658      7662      7660      7658      7661
      7660      7658      7662      7661      7658      7662      7662      7663      7664
      7662      7663      7665      7662      7663      7666      7663      7666      7667
      7663      7666      7668      7663      7666      7674      7664      7663      7665
      7664      7663      7666      7665      7663      7666      7666      7668      7669
      7666      7674      7675      7666      7674      7676      7666      7674      7677
      7667      7666      7668      7667      7666      7674      7668      7666      7674
      7668      7669      7670      7668      7669      7671      7669      7671      7672
      7669      7671      7673      7669      7671      7683      7670      7669      7671
      7671      7683      7684      7671      7683      7685      7671      7683      7686
      7672      7671      7673      7672      7671      7683      7673      7671      7683
      7674      7677      7678      7675      7674      7676      7675      7674      7677
      7676      7674      7677      7677      7678      7679      7677      7678      7680
      7678      7680      7681      7678      7680      7682      7678      7680      7730
      7679      7678      7680      7680      7730      7731      7680      7730      7732
      7680      7730      7733      7681      7680      7682      7681      7680      7730
      7682      7680      7730      7683      7686      7687      7683      7686      7688
      7683      7686      7689      7684      7683      7685      7684      7683      7686
      7685      7683      7686      7686      7689      7690      7686      7689      7691
      7686      7689      7692      7687      7686      7688      7687      7686      7689
      7688      7686      7689      7689      7692      7693      7689      7692      7694
      7689      7692      7695      7690      7689      7691      7690      7689      7692
      7691      7689      7692      7692      7695      7696      7692      7695      7697
      7692      7695      7698      7693      7692      7694      7693      7692      7695
      7694      7692      7695      7695      7698      7699      7695      7698      7700
      7695      7698      7701      7696      7695      7697      7696      7695      7698
      7697      7695      7698      7698      7701      7702      7698      7701      7703
      7699      7698      7700      7699      7698      7701      7700      7698      7701
      7701      7703      7704      7701      7703      7705      7702      7701      7703
      7703      7705      7706      7703      7705      7707      7703      7705      7708
      7704      7703      7705      7705      7708      7709      7705      7708      7710
      7705      7708      7711      7706      7705      7707      7706      7705      7708
      7707      7705      7708      7708      7711      7712      7708      7711      7713
      7708      7711      7714      7709      7708      7710      7709      7708      7711
      7710      7708      7711      7711      7714      7715      7711      7714      7716
      7711      7714      7717      7712      7711      7713      7712      7711      7714
      7713      7711      7714      7714      7717      7718      7714      7717      7719
      7714      7717      7720      7715      7714      7716      7715      7714      7717
      7716      7714      7717      7717      7720      7721      7717      7720      7722
      7717      7720      7723      7718      7717      7719      7718      7717      7720
      7719      7717      7720      7720      7723      7724      7720      7723      7725
      7720      7723      7726      7721      7720      7722      7721      7720      7723
      7722      7720      7723      7723      7726      7727      7723      7726      7728
      7723      7726      7729      7724      7723      7725      7724      7723      7726
      7725      7723      7726      7727      7726      7728      7727      7726      7729
      7728      7726      7729      7730      7733      7734      7730      7733      7735
      7730      7733      7736      7731      7730      7732      7731      7730      7733
      7732      7730      7733      7733      7736      7737      7733      7736      7738
      7733      7736      7739      7734      7733      7735      7734      7733      7736
      7735      7733      7736      7736      7739      7740      7736      7739      7741
      7736      7739      7742      7737      7736      7738      7737      7736      7739
      7738      7736      7739      7739      7742      7743      7739      7742      7744
      7739      7742      7745      7740      7739      7741      7740      7739      7742
      7741      7739      7742      7742      7745      7746      7742      7745      7747
      7742      7745      7748      7743      7742      7744      7743      7742      7745
      7744      7742      7745      7745      7748      7749      7745      7748      7750
      7745      7748      7751      7746      7745      7747      7746      7745      7748
      7747      7745      7748      7748      7751      7752      7748      7751      7753
      7748      7751      7754      7749      7748      7750      7749      7748      7751
      7750      7748      7751      7751      7754      7755      7751      7754      7756
      7751      7754      7757      7752      7751      7753      7752      7751      7754
      7753      7751      7754      7754      7757      7758      7754      7757      7759
      7754      7757      7760      7755      7754      7756      7755      7754      7757
      7756      7754      7757      7757      7760      7761      7757      7760      7762
      7757      7760      7763      7758      7757      7759      7758      7757      7760
      7759      7757      7760      7760      7763      7764      7760      7763      7765
      7760      7763      7766      7761      7760      7762      7761      7760      7763
      7762      7760      7763      7763      7766      7767      7763      7766      7768
      7763      7766      7769      7764      7763      7765      7764      7763      7766
      7765      7763      7766      7766      7769      7770      7766      7769      7771
      7766      7769      7772      7767      7766      7768      7767      7766      7769
      7768      7766      7769      7770      7769      7771      7770      7769      7772
      7771      7769      7772      7773      7774      7775      7773      7774      7776
      7773      7774      7789      7773      7777      7778      7773      7777      7779
      7773      7777      7780      7773      7781      7782      7773      7781      7783
      7773      7781      7784      7773      7785      7786      7773      7785      7787
      7773      7785      7788      7774      7773      7777      7774      7773      7781
      7774      7773      7785      7774      7789      7790      7774      7789      7791
      7774      7789      7795      7775      7774      7776      7775      7774      7789
      7776      7774      7789      7777      7773      7781      7777      7773      7785
      7778      7777      7779      7778      7777      7780      7779      7777      7780
      7781      7773      7785      7782      7781      7783      7782      7781      7784
      7783      7781      7784      7786      7785      7787      7786      7785      7788
      7787      7785      7788      7789      7795      7792      7790      7789      7791
      7790      7789      7795      7791      7789      7795      7792      7796      7797
      7793      7792      7794      7793      7792      7795      7793      7792      7796
      7794      7792      7795      7794      7792      7796      7795      7792      7796
      7796      7797      7798      7796      7797      7799      7796      7797      7800
      7797      7800      7801      7797      7800      7802      7797      7800      7808
      7798      7797      7799      7798      7797      7800      7799      7797      7800
      7800      7802      7803      7800      7808      7809      7800      7808      7810
      7800      7808      7811      7801      7800      7802      7801      7800      7808
      7802      7800      7808      7802      7803      7804      7802      7803      7805
      7803      7805      7806      7803      7805      7807      7803      7805      7817
      7804      7803      7805      7805      7817      7818      7805      7817      7819
      7805      7817      7820      7806      7805      7807      7806      7805      7817
      7807      7805      7817      7808      7811      7812      7809      7808      7810
      7809      7808      7811      7810      7808      7811      7811      7812      7813
      7811      7812      7814      7812      7814      7815      7812      7814      7816
      7812      7814      7864      7813      7812      7814      7814      7864      7865
      7814      7864      7866      7814      7864      7867      7815      7814      7816
      7815      7814      7864      7816      7814      7864      7817      7820      7821
      7817      7820      7822      7817      7820      7823      7818      7817      7819
      7818      7817      7820      7819      7817      7820      7820      7823      7824
      7820      7823      7825      7820      7823      7826      7821      7820      7822
      7821      7820      7823      7822      7820      7823      7823      7826      7827
      7823      7826      7828      7823      7826      7829      7824      7823      7825
      7824      7823      7826      7825      7823      7826      7826      7829      7830
      7826      7829      7831      7826      7829      7832      7827      7826      7828
      7827      7826      7829      7828      7826      7829      7829      7832      7833
      7829      7832      7834      7829      7832      7835      7830      7829      7831
      7830      7829      7832      7831      7829      7832      7832      7835      7836
      7832      7835      7837      7833      7832      7834      7833      7832      7835
      7834      7832      7835      7835      7837      7838      7835      7837      7839
      7836      7835      7837      7837      7839      7840      7837      7839      7841
      7837      7839      7842      7838      7837      7839      7839      7842      7843
      7839      7842      7844      7839      7842      7845      7840      7839      7841
      7840      7839      7842      7841      7839      7842      7842      7845      7846
      7842      7845      7847      7842      7845      7848      7843      7842      7844
      7843      7842      7845      7844      7842      7845      7845      7848      7849
      7845      7848      7850      7845      7848      7851      7846      7845      7847
      7846      7845      7848      7847      7845      7848      7848      7851      7852
      7848      7851      7853      7848      7851      7854      7849      7848      7850
      7849      7848      7851      7850      7848      7851      7851      7854      7855
      7851      7854      7856      7851      7854      7857      7852      7851      7853
      7852      7851      7854      7853      7851      7854      7854      7857      7858
      7854      7857      7859      7854      7857      7860      7855      7854      7856
      7855      7854      7857      7856      7854      7857      7857      7860      7861
      7857      7860      7862      7857      7860      7863      7858      7857      7859
      7858      7857      7860      7859      7857      7860      7861      7860      7862
      7861      7860      7863      7862      7860      7863      7864      7867      7868
      7864      7867      7869      7864      7867      7870      7865      7864      7866
      7865      7864      7867      7866      7864      7867      7867      7870      7871
      7867      7870      7872      7867      7870      7873      7868      7867      7869
      7868      7867      7870      7869      7867      7870      7870      7873      7874
      7870      7873      7875      7870      7873      7876      7871      7870      7872
      7871      7870      7873      7872      7870      7873      7873      7876      7877
      7873      7876      7878      7873      7876      7879      7874      7873      7875
      7874      7873      7876      7875      7873      7876      7876      7879      7880
      7876      7879      7881      7876      7879      7882      7877      7876      7878
      7877      7876      7879      7878      7876      7879      7879      7882      7883
      7879      7882      7884      7879      7882      7885      7880      7879      7881
      7880      7879      7882      7881      7879      7882      7882      7885      7886
      7882      7885      7887      7882      7885      7888      7883      7882      7884
      7883      7882      7885      7884      7882      7885      7885      7888      7889
      7885      7888      7890      7885      7888      7891      7886      7885      7887
      7886      7885      7888      7887      7885      7888      7888      7891      7892
      7888      7891      7893      7888      7891      7894      7889      7888      7890
      7889      7888      7891      7890      7888      7891      7891      7894      7895
      7891      7894      7896      7891      7894      7897      7892      7891      7893
      7892      7891      7894      7893      7891      7894      7894      7897      7898
      7894      7897      7899      7894      7897      7900      7895      7894      7896
      7895      7894      7897      7896      7894      7897      7897      7900      7901
      7897      7900      7902      7897      7900      7903      7898      7897      7899
      7898      7897      7900      7899      7897      7900      7900      7903      7904
      7900      7903      7905      7900      7903      7906      7901      7900      7902
      7901      7900      7903      7902      7900      7903      7904      7903      7905
      7904      7903      7906      7905      7903      7906      7907      7908      7909
      7907      7908      7910      7907      7908      7923      7907      7911      7912
      7907      7911      7913      7907      7911      7914      7907      7915      7916
      7907      7915      7917      7907      7915      7918      7907      7919      7920
      7907      7919      7921      7907      7919      7922      7908      7907      7911
      7908      7907      7915      7908      7907      7919      7908      7923      7924
      7908      7923      7925      7908      7923      7929      7909      7908      7910
      7909      7908      7923      7910      7908      7923      7911      7907      7915
      7911      7907      7919      7912      7911      7913      7912      7911      7914
      7913      7911      7914      7915      7907      7919      7916      7915      7917
      7916      7915      7918      7917      7915      7918      7920      7919      7921
      7920      7919      7922      7921      7919      7922      7923      7929      7926
      7924      7923      7925      7924      7923      7929      7925      7923      7929
      7926      7930      7931      7927      7926      7928      7927      7926      7929
      7927      7926      7930      7928      7926      7929      7928      7926      7930
      7929      7926      7930      7930      7931      7932      7930      7931      7933
      7930      7931      7934      7931      7934      7935      7931      7934      7936
      7931      7934      7942      7932      7931      7933      7932      7931      7934
      7933      7931      7934      7934      7936      7937      7934      7942      7943
      7934      7942      7944      7934      7942      7945      7935      7934      7936
      7935      7934      7942      7936      7934      7942      7936      7937      7938
      7936      7937      7939      7937      7939      7940      7937      7939      7941
      7937      7939      7951      7938      7937      7939      7939      7951      7952
      7939      7951      7953      7939      7951      7954      7940      7939      7941
      7940      7939      7951      7941      7939      7951      7942      7945      7946
      7943      7942      7944      7943      7942      7945      7944      7942      7945
      7945      7946      7947      7945      7946      7948      7946      7948      7949
      7946      7948      7950      7946      7948      7998      7947      7946      7948
      7948      7998      7999      7948      7998      8000      7948      7998      8001
      7949      7948      7950      7949      7948      7998      7950      7948      7998
      7951      7954      7955      7951      7954      7956      7951      7954      7957
      7952      7951      7953      7952      7951      7954      7953      7951      7954
      7954      7957      7958      7954      7957      7959      7954      7957      7960
      7955      7954      7956      7955      7954      7957      7956      7954      7957
      7957      7960      7961      7957      7960      7962      7957      7960      7963
      7958      7957      7959      7958      7957      7960      7959      7957      7960
      7960      7963      7964      7960      7963      7965      7960      7963      7966
      7961      7960      7962      7961      7960      7963      7962      7960      7963
      7963      7966      7967      7963      7966      7968      7963      7966      7969
      7964      7963      7965      7964      7963      7966      7965      7963      7966
      7966      7969      7970      7966      7969      7971      7967      7966      7968
      7967      7966      7969      7968      7966      7969      7969      7971      7972
      7969      7971      7973      7970      7969      7971      7971      7973      7974
      7971      7973      7975      7971      7973      7976      7972      7971      7973
      7973      7976      7977      7973      7976      7978      7973      7976      7979
      7974      7973      7975      7974      7973      7976      7975      7973      7976
      7976      7979      7980      7976      7979      7981      7976      7979      7982
      7977      7976      7978      7977      7976      7979      7978      7976      7979
      7979      7982      7983      7979      7982      7984      7979      7982      7985
      7980      7979      7981      7980      7979      7982      7981      7979      7982
      7982      7985      7986      7982      7985      7987      7982      7985      7988
      7983      7982      7984      7983      7982      7985      7984      7982      7985
      7985      7988      7989      7985      7988      7990      7985      7988      7991
      7986      7985      7987      7986      7985      7988      7987      7985      7988
      7988      7991      7992      7988      7991      7993      7988      7991      7994
      7989      7988      7990      7989      7988      7991      7990      7988      7991
      7991      7994      7995      7991      7994      7996      7991      7994      7997
      7992      7991      7993      7992      7991      7994      7993      7991      7994
      7995      7994      7996      7995      7994      7997      7996      7994      7997
      7998      8001      8002      7998      8001      8003      7998      8001      8004
      7999      7998      8000      7999      7998      8001      8000      7998      8001
      8001      8004      8005      8001      8004      8006      8001      8004      8007
      8002      8001      8003      8002      8001      8004      8003      8001      8004
      8004      8007      8008      8004      8007      8009      8004      8007      8010
      8005      8004      8006      8005      8004      8007      8006      8004      8007
      8007      8010      8011      8007      8010      8012      8007      8010      8013
      8008      8007      8009      8008      8007      8010      8009      8007      8010
      8010      8013      8014      8010      8013      8015      8010      8013      8016
      8011      8010      8012      8011      8010      8013      8012      8010      8013
      8013      8016      8017      8013      8016      8018      8013      8016      8019
      8014      8013      8015      8014      8013      8016      8015      8013      8016
      8016      8019      8020      8016      8019      8021      8016      8019      8022
      8017      8016      8018      8017      8016      8019      8018      8016      8019
      8019      8022      8023      8019      8022      8024      8019      8022      8025
      8020      8019      8021      8020      8019      8022      8021      8019      8022
      8022      8025      8026      8022      8025      8027      8022      8025      8028
      8023      8022      8024      8023      8022      8025      8024      8022      8025
      8025      8028      8029      8025      8028      8030      8025      8028      8031
      8026      8025      8027      8026      8025      8028      8027      8025      8028
      8028      8031      8032      8028      8031      8033      8028      8031      8034
      8029      8028      8030      8029      8028      8031      8030      8028      8031
      8031      8034      8035      8031      8034      8036      8031      8034      8037
      8032      8031      8033      8032      8031      8034      8033      8031      8034
      8034      8037      8038      8034      8037      8039      8034      8037      8040
      8035      8034      8036      8035      8034      8037      8036      8034      8037
      8038      8037      8039      8038      8037      8040      8039      8037      8040
      8041      8042      8043      8041      8042      8044      8041      8042      8057
      8041      8045      8046      8041      8045      8047      8041      8045      8048
      8041      8049      8050      8041      8049      8051      8041      8049      8052
      8041      8053      8054      8041      8053      8055      8041      8053      8056
      8042      8041      8045      8042      8041      8049      8042      8041      8053
      8042      8057      8058      8042      8057      8059      8042      8057      8063
      8043      8042      8044      8043      8042      8057      8044      8042      8057
      8045      8041      8049      8045      8041      8053      8046      8045      8047
      8046      8045      8048      8047      8045      8048      8049      8041      8053
      8050      8049      8051      8050      8049      8052      8051      8049      8052
      8054      8053      8055      8054      8053      8056      8055      8053      8056
      8057      8063      8060      8058      8057      8059      8058      8057      8063
      8059      8057      8063      8060      8064      8065      8061      8060      8062
      8061      8060      8063      8061      8060      8064      8062      8060      8063
      8062      8060      8064      8063      8060      8064      8064      8065      8066
      8064      8065      8067      8064      8065      8068      8065      8068      8069
      8065      8068      8070      8065      8068      8076      8066      8065      8067
      8066      8065      8068      8067      8065      8068      8068      8070      8071
      8068      8076      8077      8068      8076      8078      8068      8076      8079
      8069      8068      8070      8069      8068      8076      8070      8068      8076
      8070      8071      8072      8070      8071      8073      8071      8073      8074
      8071      8073      8075      8071      8073      8085      8072      8071      8073
      8073      8085      8086      8073      8085      8087      8073      8085      8088
      8074      8073      8075      8074      8073      8085      8075      8073      8085
      8076      8079      8080      8077      8076      8078      8077      8076      8079
      8078      8076      8079      8079      8080      8081      8079      8080      8082
      8080      8082      8083      8080      8082      8084      8080      8082      8132
      8081      8080      8082      8082      8132      8133      8082      8132      8134
      8082      8132      8135      8083      8082      8084      8083      8082      8132
      8084      8082      8132      8085      8088      8089      8085      8088      8090
      8085      8088      8091      8086      8085      8087      8086      8085      8088
      8087      8085      8088      8088      8091      8092      8088      8091      8093
      8088      8091      8094      8089      8088      8090      8089      8088      8091
      8090      8088      8091      8091      8094      8095      8091      8094      8096
      8091      8094      8097      8092      8091      8093      8092      8091      8094
      8093      8091      8094      8094      8097      8098      8094      8097      8099
      8094      8097      8100      8095      8094      8096      8095      8094      8097
      8096      8094      8097      8097      8100      8101      8097      8100      8102
      8097      8100      8103      8098      8097      8099      8098      8097      8100
      8099      8097      8100      8100      8103      8104      8100      8103      8105
      8101      8100      8102      8101      8100      8103      8102      8100      8103
      8103      8105      8106      8103      8105      8107      8104      8103      8105
      8105      8107      8108      8105      8107      8109      8105      8107      8110
      8106      8105      8107      8107      8110      8111      8107      8110      8112
      8107      8110      8113      8108      8107      8109      8108      8107      8110
      8109      8107      8110      8110      8113      8114      8110      8113      8115
      8110      8113      8116      8111      8110      8112      8111      8110      8113
      8112      8110      8113      8113      8116      8117      8113      8116      8118
      8113      8116      8119      8114      8113      8115      8114      8113      8116
      8115      8113      8116      8116      8119      8120      8116      8119      8121
      8116      8119      8122      8117      8116      8118      8117      8116      8119
      8118      8116      8119      8119      8122      8123      8119      8122      8124
      8119      8122      8125      8120      8119      8121      8120      8119      8122
      8121      8119      8122      8122      8125      8126      8122      8125      8127
      8122      8125      8128      8123      8122      8124      8123      8122      8125
      8124      8122      8125      8125      8128      8129      8125      8128      8130
      8125      8128      8131      8126      8125      8127      8126      8125      8128
      8127      8125      8128      8129      8128      8130      8129      8128      8131
      8130      8128      8131      8132      8135      8136      8132      8135      8137
      8132      8135      8138      8133      8132      8134      8133      8132      8135
      8134      8132      8135      8135      8138      8139      8135      8138      8140
      8135      8138      8141      8136      8135      8137      8136      8135      8138
      8137      8135      8138      8138      8141      8142      8138      8141      8143
      8138      8141      8144      8139      8138      8140      8139      8138      8141
      8140      8138      8141      8141      8144      8145      8141      8144      8146
      8141      8144      8147      8142      8141      8143      8142      8141      8144
      8143      8141      8144      8144      8147      8148      8144      8147      8149
      8144      8147      8150      8145      8144      8146      8145      8144      8147
      8146      8144      8147      8147      8150      8151      8147      8150      8152
      8147      8150      8153      8148      8147      8149      8148      8147      8150
      8149      8147      8150      8150      8153      8154      8150      8153      8155
      8150      8153      8156      8151      8150      8152      8151      8150      8153
      8152      8150      8153      8153      8156      8157      8153      8156      8158
      8153      8156      8159      8154      8153      8155      8154      8153      8156
      8155      8153      8156      8156      8159      8160      8156      8159      8161
      8156      8159      8162      8157      8156      8158      8157      8156      8159
      8158      8156      8159      8159      8162      8163      8159      8162      8164
      8159      8162      8165      8160      8159      8161      8160      8159      8162
      8161      8159      8162      8162      8165      8166      8162      8165      8167
      8162      8165      8168      8163      8162      8164      8163      8162      8165
      8164      8162      8165      8165      8168      8169      8165      8168      8170
      8165      8168      8171      8166      8165      8167      8166      8165      8168
      8167      8165      8168      8168      8171      8172      8168      8171      8173
      8168      8171      8174      8169      8168      8170      8169      8168      8171
      8170      8168      8171      8172      8171      8173      8172      8171      8174
      8173      8171      8174      8175      8176      8177      8175      8176      8178
      8175      8176      8191      8175      8179      8180      8175      8179      8181
      8175      8179      8182      8175      8183      8184      8175      8183      8185
      8175      8183      8186      8175      8187      8188      8175      8187      8189
      8175      8187      8190      8176      8175      8179      8176      8175      8183
      8176      8175      8187      8176      8191      8192      8176      8191      8193
      8176      8191      8197      8177      8176      8178      8177      8176      8191
      8178      8176      8191      8179      8175      8183      8179      8175      8187
      8180      8179      8181      8180      8179      8182      8181      8179      8182
      8183      8175      8187      8184      8183      8185      8184      8183      8186
      8185      8183      8186      8188      8187      8189      8188      8187      8190
      8189      8187      8190      8191      8197      8194      8192      8191      8193
      8192      8191      8197      8193      8191      8197      8194      8198      8199
      8195      8194      8196      8195      8194      8197      8195      8194      8198
      8196      8194      8197      8196      8194      8198      8197      8194      8198
      8198      8199      8200      8198      8199      8201      8198      8199      8202
      8199      8202      8203      8199      8202      8204      8199      8202      8210
      8200      8199      8201      8200      8199      8202      8201      8199      8202
      8202      8204      8205      8202      8210      8211      8202      8210      8212
      8202      8210      8213      8203      8202      8204      8203      8202      8210
      8204      8202      8210      8204      8205      8206      8204      8205      8207
      8205      8207      8208      8205      8207      8209      8205      8207      8219
      8206      8205      8207      8207      8219      8220      8207      8219      8221
      8207      8219      8222      8208      8207      8209      8208      8207      8219
      8209      8207      8219      8210      8213      8214      8211      8210      8212
      8211      8210      8213      8212      8210      8213      8213      8214      8215
      8213      8214      8216      8214      8216      8217      8214      8216      8218
      8214      8216      8266      8215      8214      8216      8216      8266      8267
      8216      8266      8268      8216      8266      8269      8217      8216      8218
      8217      8216      8266      8218      8216      8266      8219      8222      8223
      8219      8222      8224      8219      8222      8225      8220      8219      8221
      8220      8219      8222      8221      8219      8222      8222      8225      8226
      8222      8225      8227      8222      8225      8228      8223      8222      8224
      8223      8222      8225      8224      8222      8225      8225      8228      8229
      8225      8228      8230      8225      8228      8231      8226      8225      8227
      8226      8225      8228      8227      8225      8228      8228      8231      8232
      8228      8231      8233      8228      8231      8234      8229      8228      8230
      8229      8228      8231      8230      8228      8231      8231      8234      8235
      8231      8234      8236      8231      8234      8237      8232      8231      8233
      8232      8231      8234      8233      8231      8234      8234      8237      8238
      8234      8237      8239      8235      8234      8236      8235      8234      8237
      8236      8234      8237      8237      8239      8240      8237      8239      8241
      8238      8237      8239      8239      8241      8242      8239      8241      8243
      8239      8241      8244      8240      8239      8241      8241      8244      8245
      8241      8244      8246      8241      8244      8247      8242      8241      8243
      8242      8241      8244      8243      8241      8244      8244      8247      8248
      8244      8247      8249      8244      8247      8250      8245      8244      8246
      8245      8244      8247      8246      8244      8247      8247      8250      8251
      8247      8250      8252      8247      8250      8253      8248      8247      8249
      8248      8247      8250      8249      8247      8250      8250      8253      8254
      8250      8253      8255      8250      8253      8256      8251      8250      8252
      8251      8250      8253      8252      8250      8253      8253      8256      8257
      8253      8256      8258      8253      8256      8259      8254      8253      8255
      8254      8253      8256      8255      8253      8256      8256      8259      8260
      8256      8259      8261      8256      8259      8262      8257      8256      8258
      8257      8256      8259      8258      8256      8259      8259      8262      8263
      8259      8262      8264      8259      8262      8265      8260      8259      8261
      8260      8259      8262      8261      8259      8262      8263      8262      8264
      8263      8262      8265      8264      8262      8265      8266      8269      8270
      8266      8269      8271      8266      8269      8272      8267      8266      8268
      8267      8266      8269      8268      8266      8269      8269      8272      8273
      8269      8272      8274      8269      8272      8275      8270      8269      8271
      8270      8269      8272      8271      8269      8272      8272      8275      8276
      8272      8275      8277      8272      8275      8278      8273      8272      8274
      8273      8272      8275      8274      8272      8275      8275      8278      8279
      8275      8278      8280      8275      8278      8281      8276      8275      8277
      8276      8275      8278      8277      8275      8278      8278      8281      8282
      8278      8281      8283      8278      8281      8284      8279      8278      8280
      8279      8278      8281      8280      8278      8281      8281      8284      8285
      8281      8284      8286      8281      8284      8287      8282      8281      8283
      8282      8281      8284      8283      8281      8284      8284      8287      8288
      8284      8287      8289      8284      8287      8290      8285      8284      8286
      8285      8284      8287      8286      8284      8287      8287      8290      8291
      8287      8290      8292      8287      8290      8293      8288      8287      8289
      8288      8287      8290      8289      8287      8290      8290      8293      8294
      8290      8293      8295      8290      8293      8296      8291      8290      8292
      8291      8290      8293      8292      8290      8293      8293      8296      8297
      8293      8296      8298      8293      8296      8299      8294      8293      8295
      8294      8293      8296      8295      8293      8296      8296      8299      8300
      8296      8299      8301      8296      8299      8302      8297      8296      8298
      8297      8296      8299      8298      8296      8299      8299      8302      8303
      8299      8302      8304      8299      8302      8305      8300      8299      8301
      8300      8299      8302      8301      8299      8302      8302      8305      8306
      8302      8305      8307      8302      8305      8308      8303      8302      8304
      8303      8302      8305      8304      8302      8305      8306      8305      8307
      8306      8305      8308      8307      8305      8308      8309      8310      8311
      8309      8310      8312      8309      8310      8325      8309      8313      8314
      8309      8313      8315      8309      8313      8316      8309      8317      8318
      8309      8317      8319      8309      8317      8320      8309      8321      8322
      8309      8321      8323      8309      8321      8324      8310      8309      8313
      8310      8309      8317      8310      8309      8321      8310      8325      8326
      8310      8325      8327      8310      8325      8331      8311      8310      8312
      8311      8310      8325      8312      8310      8325      8313      8309      8317
      8313      8309      8321      8314      8313      8315      8314      8313      8316
      8315      8313      8316      8317      8309      8321      8318      8317      8319
      8318      8317      8320      8319      8317      8320      8322      8321      8323
      8322      8321      8324      8323      8321      8324      8325      8331      8328
      8326      8325      8327      8326      8325      8331      8327      8325      8331
      8328      8332      8333      8329      8328      8330      8329      8328      8331
      8329      8328      8332      8330      8328      8331      8330      8328      8332
      8331      8328      8332      8332      8333      8334      8332      8333      8335
      8332      8333      8336      8333      8336      8337      8333      8336      8338
      8333      8336      8344      8334      8333      8335      8334      8333      8336
      8335      8333      8336      8336      8338      8339      8336      8344      8345
      8336      8344      8346      8336      8344      8347      8337      8336      8338
      8337      8336      8344      8338      8336      8344      8338      8339      8340
      8338      8339      8341      8339      8341      8342      8339      8341      8343
      8339      8341      8353      8340      8339      8341      8341      8353      8354
      8341      8353      8355      8341      8353      8356      8342      8341      8343
      8342      8341      8353      8343      8341      8353      8344      8347      8348
      8345      8344      8346      8345      8344      8347      8346      8344      8347
      8347      8348      8349      8347      8348      8350      8348      8350      8351
      8348      8350      8352      8348      8350      8400      8349      8348      8350
      8350      8400      8401      8350      8400      8402      8350      8400      8403
      8351      8350      8352      8351      8350      8400      8352      8350      8400
      8353      8356      8357      8353      8356      8358      8353      8356      8359
      8354      8353      8355      8354      8353      8356      8355      8353      8356
      8356      8359      8360      8356      8359      8361      8356      8359      8362
      8357      8356      8358      8357      8356      8359      8358      8356      8359
      8359      8362      8363      8359      8362      8364      8359      8362      8365
      8360      8359      8361      8360      8359      8362      8361      8359      8362
      8362      8365      8366      8362      8365      8367      8362      8365      8368
      8363      8362      8364      8363      8362      8365      8364      8362      8365
      8365      8368      8369      8365      8368      8370      8365      8368      8371
      8366      8365      8367      8366      8365      8368      8367      8365      8368
      8368      8371      8372      8368      8371      8373      8369      8368      8370
      8369      8368      8371      8370      8368      8371      8371      8373      8374
      8371      8373      8375      8372      8371      8373      8373      8375      8376
      8373      8375      8377      8373      8375      8378      8374      8373      8375
      8375      8378      8379      8375      8378      8380      8375      8378      8381
      8376      8375      8377      8376      8375      8378      8377      8375      8378
      8378      8381      8382      8378      8381      8383      8378      8381      8384
      8379      8378      8380      8379      8378      8381      8380      8378      8381
      8381      8384      8385      8381      8384      8386      8381      8384      8387
      8382      8381      8383      8382      8381      8384      8383      8381      8384
      8384      8387      8388      8384      8387      8389      8384      8387      8390
      8385      8384      8386      8385      8384      8387      8386      8384      8387
      8387      8390      8391      8387      8390      8392      8387      8390      8393
      8388      8387      8389      8388      8387      8390      8389      8387      8390
      8390      8393      8394      8390      8393      8395      8390      8393      8396
      8391      8390      8392      8391      8390      8393      8392      8390      8393
      8393      8396      8397      8393      8396      8398      8393      8396      8399
      8394      8393      8395      8394      8393      8396      8395      8393      8396
      8397      8396      8398      8397      8396      8399      8398      8396      8399
      8400      8403      8404      8400      8403      8405      8400      8403      8406
      8401      8400      8402      8401      8400      8403      8402      8400      8403
      8403      8406      8407      8403      8406      8408      8403      8406      8409
      8404      8403      8405      8404      8403      8406      8405      8403      8406
      8406      8409      8410      8406      8409      8411      8406      8409      8412
      8407      8406      8408      8407      8406      8409      8408      8406      8409
      8409      8412      8413      8409      8412      8414      8409      8412      8415
      8410      8409      8411      8410      8409      8412      8411      8409      8412
      8412      8415      8416      8412      8415      8417      8412      8415      8418
      8413      8412      8414      8413      8412      8415      8414      8412      8415
      8415      8418      8419      8415      8418      8420      8415      8418      8421
      8416      8415      8417      8416      8415      8418      8417      8415      8418
      8418      8421      8422      8418      8421      8423      8418      8421      8424
      8419      8418      8420      8419      8418      8421      8420      8418      8421
      8421      8424      8425      8421      8424      8426      8421      8424      8427
      8422      8421      8423      8422      8421      8424      8423      8421      8424
      8424      8427      8428      8424      8427      8429      8424      8427      8430
      8425      8424      8426      8425      8424      8427      8426      8424      8427
      8427      8430      8431      8427      8430      8432      8427      8430      8433
      8428      8427      8429      8428      8427      8430      8429      8427      8430
      8430      8433      8434      8430      8433      8435      8430      8433      8436
      8431      8430      8432      8431      8430      8433      8432      8430      8433
      8433      8436      8437      8433      8436      8438      8433      8436      8439
      8434      8433      8435      8434      8433      8436      8435      8433      8436
      8436      8439      8440      8436      8439      8441      8436      8439      8442
      8437      8436      8438      8437      8436      8439      8438      8436      8439
      8440      8439      8441      8440      8439      8442      8441      8439      8442
      8443      8444      8445      8443      8444      8446      8443      8444      8459
      8443      8447      8448      8443      8447      8449      8443      8447      8450
      8443      8451      8452      8443      8451      8453      8443      8451      8454
      8443      8455      8456      8443      8455      8457      8443      8455      8458
      8444      8443      8447      8444      8443      8451      8444      8443      8455
      8444      8459      8460      8444      8459      8461      8444      8459      8465
      8445      8444      8446      8445      8444      8459      8446      8444      8459
      8447      8443      8451      8447      8443      8455      8448      8447      8449
      8448      8447      8450      8449      8447      8450      8451      8443      8455
      8452      8451      8453      8452      8451      8454      8453      8451      8454
      8456      8455      8457      8456      8455      8458      8457      8455      8458
      8459      8465      8462      8460      8459      8461      8460      8459      8465
      8461      8459      8465      8462      8466      8467      8463      8462      8464
      8463      8462      8465      8463      8462      8466      8464      8462      8465
      8464      8462      8466      8465      8462      8466      8466      8467      8468
      8466      8467      8469      8466      8467      8470      8467      8470      8471
      8467      8470      8472      8467      8470      8478      8468      8467      8469
      8468      8467      8470      8469      8467      8470      8470      8472      8473
      8470      8478      8479      8470      8478      8480      8470      8478      8481
      8471      8470      8472      8471      8470      8478      8472      8470      8478
      8472      8473      8474      8472      8473      8475      8473      8475      8476
      8473      8475      8477      8473      8475      8487      8474      8473      8475
      8475      8487      8488      8475      8487      8489      8475      8487      8490
      8476      8475      8477      8476      8475      8487      8477      8475      8487
      8478      8481      8482      8479      8478      8480      8479      8478      8481
      8480      8478      8481      8481      8482      8483      8481      8482      8484
      8482      8484      8485      8482      8484      8486      8482      8484      8534
      8483      8482      8484      8484      8534      8535      8484      8534      8536
      8484      8534      8537      8485      8484      8486      8485      8484      8534
      8486      8484      8534      8487      8490      8491      8487      8490      8492
      8487      8490      8493      8488      8487      8489      8488      8487      8490
      8489      8487      8490      8490      8493      8494      8490      8493      8495
      8490      8493      8496      8491      8490      8492      8491      8490      8493
      8492      8490      8493      8493      8496      8497      8493      8496      8498
      8493      8496      8499      8494      8493      8495      8494      8493      8496
      8495      8493      8496      8496      8499      8500      8496      8499      8501
      8496      8499      8502      8497      8496      8498      8497      8496      8499
      8498      8496      8499      8499      8502      8503      8499      8502      8504
      8499      8502      8505      8500      8499      8501      8500      8499      8502
      8501      8499      8502      8502      8505      8506      8502      8505      8507
      8503      8502      8504      8503      8502      8505      8504      8502      8505
      8505      8507      8508      8505      8507      8509      8506      8505      8507
      8507      8509      8510      8507      8509      8511      8507      8509      8512
      8508      8507      8509      8509      8512      8513      8509      8512      8514
      8509      8512      8515      8510      8509      8511      8510      8509      8512
      8511      8509      8512      8512      8515      8516      8512      8515      8517
      8512      8515      8518      8513      8512      8514      8513      8512      8515
      8514      8512      8515      8515      8518      8519      8515      8518      8520
      8515      8518      8521      8516      8515      8517      8516      8515      8518
      8517      8515      8518      8518      8521      8522      8518      8521      8523
      8518      8521      8524      8519      8518      8520      8519      8518      8521
      8520      8518      8521      8521      8524      8525      8521      8524      8526
      8521      8524      8527      8522      8521      8523      8522      8521      8524
      8523      8521      8524      8524      8527      8528      8524      8527      8529
      8524      8527      8530      8525      8524      8526      8525      8524      8527
      8526      8524      8527      8527      8530      8531      8527      8530      8532
      8527      8530      8533      8528      8527      8529      8528      8527      8530
      8529      8527      8530      8531      8530      8532      8531      8530      8533
      8532      8530      8533      8534      8537      8538      8534      8537      8539
      8534      8537      8540      8535      8534      8536      8535      8534      8537
      8536      8534      8537      8537      8540      8541      8537      8540      8542
      8537      8540      8543      8538      8537      8539      8538      8537      8540
      8539      8537      8540      8540      8543      8544      8540      8543      8545
      8540      8543      8546      8541      8540      8542      8541      8540      8543
      8542      8540      8543      8543      8546      8547      8543      8546      8548
      8543      8546      8549      8544      8543      8545      8544      8543      8546
      8545      8543      8546      8546      8549      8550      8546      8549      8551
      8546      8549      8552      8547      8546      8548      8547      8546      8549
      8548      8546      8549      8549      8552      8553      8549      8552      8554
      8549      8552      8555      8550      8549      8551      8550      8549      8552
      8551      8549      8552      8552      8555      8556      8552      8555      8557
      8552      8555      8558      8553      8552      8554      8553      8552      8555
      8554      8552      8555      8555      8558      8559      8555      8558      8560
      8555      8558      8561      8556      8555      8557      8556      8555      8558
      8557      8555      8558      8558      8561      8562      8558      8561      8563
      8558      8561      8564      8559      8558      8560      8559      8558      8561
      8560      8558      8561      8561      8564      8565      8561      8564      8566
      8561      8564      8567      8562      8561      8563      8562      8561      8564
      8563      8561      8564      8564      8567      8568      8564      8567      8569
      8564      8567      8570      8565      8564      8566      8565      8564      8567
      8566      8564      8567      8567      8570      8571      8567      8570      8572
      8567      8570      8573      8568      8567      8569      8568      8567      8570
      8569      8567      8570      8570      8573      8574      8570      8573      8575
      8570      8573      8576      8571      8570      8572      8571      8570      8573
      8572      8570      8573      8574      8573      8575      8574      8573      8576
      8575      8573      8576      8578      8577      8579      8581      8580      8582
      8584      8583      8585      8587      8586      8588      8590      8589      8591
      8593      8592      8594      8596      8595      8597      8599      8598      8600
      8602      8601      8603      8605      8604      8606      8608      8607      8609
      8611      8610      8612      8614      8613      8615      8617      8616      8618
      8620      8619      8621      8623      8622      8624      8626      8625      8627
      8629      8628      8630      8632      8631      8633      8635      8634      8636
      8638      8637      8639      8641      8640      8642      8644      8643      8645
      8647      8646      8648      8650      8649      8651      8653      8652      8654
      8656      8655      8657      8659      8658      8660      8662      8661      8663
      8665      8664      8666      8668      8667      8669      8671      8670      8672
      8674      8673      8675      8677      8676      8678      8680      8679      8681
      8683      8682      8684      8686      8685      8687      8689      8688      8690
      8692      8691      8693      8695      8694      8696      8698      8697      8699
      8701      8700      8702      8704      8703      8705      8707      8706      8708
      8710      8709      8711      8713      8712      8714      8716      8715      8717
      8719      8718      8720      8722      8721      8723      8725      8724      8726
      8728      8727      8729      8731      8730      8732      8734      8733      8735
      8737      8736      8738      8740      8739      8741      8743      8742      8744
      8746      8745      8747      8749      8748      8750      8752      8751      8753
      8755      8754      8756      8758      8757      8759      8761      8760      8762
      8764      8763      8765      8767      8766      8768      8770      8769      8771
      8773      8772      8774      8776      8775      8777      8779      8778      8780
      8782      8781      8783      8785      8784      8786      8788      8787      8789
      8791      8790      8792      8794      8793      8795      8797      8796      8798
      8800      8799      8801      8803      8802      8804      8806      8805      8807
      8809      8808      8810      8812      8811      8813      8815      8814      8816
      8818      8817      8819      8821      8820      8822      8824      8823      8825
      8827      8826      8828      8830      8829      8831      8833      8832      8834
      8836      8835      8837      8839      8838      8840      8842      8841      8843
      8845      8844      8846      8848      8847      8849      8851      8850      8852
      8854      8853      8855      8857      8856      8858      8860      8859      8861
      8863      8862      8864      8866      8865      8867      8869      8868      8870
      8872      8871      8873      8875      8874      8876      8878      8877      8879
      8881      8880      8882      8884      8883      8885      8887      8886      8888
      8890      8889      8891      8893      8892      8894      8896      8895      8897
      8899      8898      8900      8902      8901      8903      8905      8904      8906
      8908      8907      8909      8911      8910      8912      8914      8913      8915
      8917      8916      8918      8920      8919      8921      8923      8922      8924
      8926      8925      8927      8929      8928      8930      8932      8931      8933
      8935      8934      8936      8938      8937      8939      8941      8940      8942
      8944      8943      8945      8947      8946      8948      8950      8949      8951
      8953      8952      8954      8956      8955      8957      8959      8958      8960
      8962      8961      8963      8965      8964      8966      8968      8967      8969
      8971      8970      8972      8974      8973      8975      8977      8976      8978
      8980      8979      8981      8983      8982      8984      8986      8985      8987
      8989      8988      8990      8992      8991      8993      8995      8994      8996
      8998      8997      8999      9001      9000      9002      9004      9003      9005
      9007      9006      9008      9010      9009      9011      9013      9012      9014
      9016      9015      9017      9019      9018      9020      9022      9021      9023
      9025      9024      9026      9028      9027      9029      9031      9030      9032
      9034      9033      9035      9037      9036      9038      9040      9039      9041
      9043      9042      9044      9046      9045      9047      9049      9048      9050
      9052      9051      9053      9055      9054      9056      9058      9057      9059
      9061      9060      9062      9064      9063      9065      9067      9066      9068
      9070      9069      9071      9073      9072      9074      9076      9075      9077
      9079      9078      9080      9082      9081      9083      9085      9084      9086
      9088      9087      9089      9091      9090      9092      9094      9093      9095
      9097      9096      9098      9100      9099      9101      9103      9102      9104
      9106      9105      9107      9109      9108      9110      9112      9111      9113
      9115      9114      9116      9118      9117      9119      9121      9120      9122
      9124      9123      9125      9127      9126      9128      9130      9129      9131
      9133      9132      9134      9136      9135      9137      9139      9138      9140
      9142      9141      9143      9145      9144      9146      9148      9147      9149
      9151      9150      9152      9154      9153      9155      9157      9156      9158
      9160      9159      9161      9163      9162      9164      9166      9165      9167
      9169      9168      9170      9172      9171      9173      9175      9174      9176
      9178      9177      9179      9181      9180      9182      9184      9183      9185
      9187      9186      9188      9190      9189      9191      9193      9192      9194
      9196      9195      9197      9199      9198      9200      9202      9201      9203
      9205      9204      9206      9208      9207      9209      9211      9210      9212
      9214      9213      9215      9217      9216      9218      9220      9219      9221
      9223      9222      9224      9226      9225      9227      9229      9228      9230
      9232      9231      9233      9235      9234      9236      9238      9237      9239
      9241      9240      9242      9244      9243      9245      9247      9246      9248
      9250      9249      9251      9253      9252      9254      9256      9255      9257
      9259      9258      9260      9262      9261      9263      9265      9264      9266
      9268      9267      9269      9271      9270      9272      9274      9273      9275
      9277      9276      9278      9280      9279      9281      9283      9282      9284
      9286      9285      9287      9289      9288      9290      9292      9291      9293
      9295      9294      9296      9298      9297      9299      9301      9300      9302
      9304      9303      9305      9307      9306      9308      9310      9309      9311
      9313      9312      9314      9316      9315      9317      9319      9318      9320
      9322      9321      9323      9325      9324      9326      9328      9327      9329
      9331      9330      9332      9334      9333      9335      9337      9336      9338
      9340      9339      9341      9343      9342      9344      9346      9345      9347
      9349      9348      9350      9352      9351      9353      9355      9354      9356
      9358      9357      9359      9361      9360      9362      9364      9363      9365
      9367      9366      9368      9370      9369      9371      9373      9372      9374
      9376      9375      9377      9379      9378      9380      9382      9381      9383
      9385      9384      9386      9388      9387      9389      9391      9390      9392
      9394      9393      9395      9397      9396      9398      9400      9399      9401
      9403      9402      9404      9406      9405      9407      9409      9408      9410
      9412      9411      9413      9415      9414      9416      9418      9417      9419
      9421      9420      9422      9424      9423      9425      9427      9426      9428
      9430      9429      9431      9433      9432      9434      9436      9435      9437
      9439      9438      9440      9442      9441      9443      9445      9444      9446
      9448      9447      9449      9451      9450      9452      9454      9453      9455
      9457      9456      9458      9460      9459      9461      9463      9462      9464
      9466      9465      9467      9469      9468      9470      9472      9471      9473
      9475      9474      9476      9478      9477      9479      9481      9480      9482
      9484      9483      9485      9487      9486      9488      9490      9489      9491
      9493      9492      9494      9496      9495      9497      9499      9498      9500
      9502      9501      9503      9505      9504      9506      9508      9507      9509
      9511      9510      9512      9514      9513      9515      9517      9516      9518
      9520      9519      9521      9523      9522      9524      9526      9525      9527
      9529      9528      9530      9532      9531      9533      9535      9534      9536
      9538      9537      9539      9541      9540      9542      9544      9543      9545
      9547      9546      9548      9550      9549      9551      9553      9552      9554
      9556      9555      9557      9559      9558      9560      9562      9561      9563
      9565      9564      9566      9568      9567      9569      9571      9570      9572
      9574      9573      9575      9577      9576      9578      9580      9579      9581
      9583      9582      9584      9586      9585      9587      9589      9588      9590
      9592      9591      9593      9595      9594      9596      9598      9597      9599
      9601      9600      9602      9604      9603      9605      9607      9606      9608
      9610      9609      9611      9613      9612      9614      9616      9615      9617
      9619      9618      9620      9622      9621      9623      9625      9624      9626
      9628      9627      9629      9631      9630      9632      9634      9633      9635
      9637      9636      9638      9640      9639      9641      9643      9642      9644
      9646      9645      9647      9649      9648      9650      9652      9651      9653
      9655      9654      9656      9658      9657      9659      9661      9660      9662
      9664      9663      9665      9667      9666      9668      9670      9669      9671
      9673      9672      9674      9676      9675      9677      9679      9678      9680
      9682      9681      9683      9685      9684      9686      9688      9687      9689
      9691      9690      9692      9694      9693      9695      9697      9696      9698
      9700      9699      9701      9703      9702      9704      9706      9705      9707
      9709      9708      9710      9712      9711      9713      9715      9714      9716
      9718      9717      9719      9721      9720      9722      9724      9723      9725
      9727      9726      9728      9730      9729      9731      9733      9732      9734
      9736      9735      9737      9739      9738      9740      9742      9741      9743
      9745      9744      9746      9748      9747      9749      9751      9750      9752
      9754      9753      9755      9757      9756      9758      9760      9759      9761
      9763      9762      9764      9766      9765      9767      9769      9768      9770
      9772      9771      9773      9775      9774      9776      9778      9777      9779
      9781      9780      9782      9784      9783      9785      9787      9786      9788
      9790      9789      9791      9793      9792      9794      9796      9795      9797
      9799      9798      9800      9802      9801      9803      9805      9804      9806
      9808      9807      9809      9811      9810      9812      9814      9813      9815
      9817      9816      9818      9820      9819      9821      9823      9822      9824
      9826      9825      9827      9829      9828      9830      9832      9831      9833
      9835      9834      9836      9838      9837      9839      9841      9840      9842
      9844      9843      9845      9847      9846      9848      9850      9849      9851
      9853      9852      9854      9856      9855      9857      9859      9858      9860
      9862      9861      9863      9865      9864      9866      9868      9867      9869
      9871      9870      9872      9874      9873      9875      9877      9876      9878
      9880      9879      9881      9883      9882      9884      9886      9885      9887
      9889      9888      9890      9892      9891      9893      9895      9894      9896
      9898      9897      9899      9901      9900      9902      9904      9903      9905
      9907      9906      9908      9910      9909      9911      9913      9912      9914
      9916      9915      9917      9919      9918      9920      9922      9921      9923
      9925      9924      9926      9928      9927      9929      9931      9930      9932
      9934      9933      9935      9937      9936      9938      9940      9939      9941
      9943      9942      9944      9946      9945      9947      9949      9948      9950
      9952      9951      9953      9955      9954      9956      9958      9957      9959
      9961      9960      9962      9964      9963      9965      9967      9966      9968
      9970      9969      9971      9973      9972      9974      9976      9975      9977
      9979      9978      9980      9982      9981      9983      9985      9984      9986
      9988      9987      9989      9991      9990      9992      9994      9993      9995
      9997      9996      9998     10000      9999     10001     10003     10002     10004
     10006     10005     10007     10009     10008     10010     10012     10011     10013
     10015     10014     10016     10018     10017     10019     10021     10020     10022
     10024     10023     10025     10027     10026     10028     10030     10029     10031
     10033     10032     10034     10036     10035     10037     10039     10038     10040
     10042     10041     10043     10045     10044     10046     10048     10047     10049
     10051     10050     10052     10054     10053     10055     10057     10056     10058
     10060     10059     10061     10063     10062     10064     10066     10065     10067
     10069     10068     10070     10072     10071     10073     10075     10074     10076
     10078     10077     10079     10081     10080     10082     10084     10083     10085
     10087     10086     10088     10090     10089     10091     10093     10092     10094
     10096     10095     10097     10099     10098     10100     10102     10101     10103
     10105     10104     10106     10108     10107     10109     10111     10110     10112
     10114     10113     10115     10117     10116     10118     10120     10119     10121
     10123     10122     10124     10126     10125     10127     10129     10128     10130
     10132     10131     10133     10135     10134     10136     10138     10137     10139
     10141     10140     10142     10144     10143     10145     10147     10146     10148
     10150     10149     10151     10153     10152     10154     10156     10155     10157
     10159     10158     10160     10162     10161     10163     10165     10164     10166
     10168     10167     10169     10171     10170     10172     10174     10173     10175
     10177     10176     10178     10180     10179     10181     10183     10182     10184
     10186     10185     10187     10189     10188     10190     10192     10191     10193
     10195     10194     10196     10198     10197     10199     10201     10200     10202
     10204     10203     10205     10207     10206     10208     10210     10209     10211
     10213     10212     10214     10216     10215     10217     10219     10218     10220
     10222     10221     10223     10225     10224     10226     10228     10227     10229
     10231     10230     10232     10234     10233     10235     10237     10236     10238
     10240     10239     10241     10243     10242     10244     10246     10245     10247
     10249     10248     10250     10252     10251     10253     10255     10254     10256
     10258     10257     10259     10261     10260     10262     10264     10263     10265
     10267     10266     10268     10270     10269     10271     10273     10272     10274
     10276     10275     10277     10279     10278     10280     10282     10281     10283
     10285     10284     10286     10288     10287     10289     10291     10290     10292
     10294     10293     10295     10297     10296     10298     10300     10299     10301
     10303     10302     10304     10306     10305     10307     10309     10308     10310
     10312     10311     10313     10315     10314     10316     10318     10317     10319
     10321     10320     10322     10324     10323     10325     10327     10326     10328
     10330     10329     10331     10333     10332     10334     10336     10335     10337
     10339     10338     10340     10342     10341     10343     10345     10344     10346
     10348     10347     10349     10351     10350     10352     10354     10353     10355
     10357     10356     10358     10360     10359     10361     10363     10362     10364
     10366     10365     10367     10369     10368     10370     10372     10371     10373
     10375     10374     10376     10378     10377     10379     10381     10380     10382
     10384     10383     10385     10387     10386     10388     10390     10389     10391
     10393     10392     10394     10396     10395     10397     10399     10398     10400
     10402     10401     10403     10405     10404     10406     10408     10407     10409
     10411     10410     10412     10414     10413     10415     10417     10416     10418
     10420     10419     10421     10423     10422     10424     10426     10425     10427
     10429     10428     10430     10432     10431     10433     10435     10434     10436
     10438     10437     10439     10441     10440     10442     10444     10443     10445
     10447     10446     10448     10450     10449     10451     10453     10452     10454
     10456     10455     10457     10459     10458     10460     10462     10461     10463
     10465     10464     10466     10468     10467     10469     10471     10470     10472
     10474     10473     10475     10477     10476     10478     10480     10479     10481
     10483     10482     10484     10486     10485     10487     10489     10488     10490
     10492     10491     10493     10495     10494     10496     10498     10497     10499
     10501     10500     10502     10504     10503     10505     10507     10506     10508
     10510     10509     10511     10513     10512     10514     10516     10515     10517
     10519     10518     10520     10522     10521     10523     10525     10524     10526
     10528     10527     10529     10531     10530     10532     10534     10533     10535
     10537     10536     10538     10540     10539     10541     10543     10542     10544
     10546     10545     10547     10549     10548     10550     10552     10551     10553
     10555     10554     10556     10558     10557     10559     10561     10560     10562
     10564     10563     10565     10567     10566     10568     10570     10569     10571
     10573     10572     10574     10576     10575     10577     10579     10578     10580
     10582     10581     10583     10585     10584     10586     10588     10587     10589
     10591     10590     10592     10594     10593     10595     10597     10596     10598
     10600     10599     10601     10603     10602     10604     10606     10605     10607
     10609     10608     10610     10612     10611     10613     10615     10614     10616
     10618     10617     10619     10621     10620     10622     10624     10623     10625
     10627     10626     10628     10630     10629     10631     10633     10632     10634
     10636     10635     10637     10639     10638     10640     10642     10641     10643
     10645     10644     10646     10648     10647     10649     10651     10650     10652
     10654     10653     10655     10657     10656     10658     10660     10659     10661
     10663     10662     10664     10666     10665     10667     10669     10668     10670
     10672     10671     10673     10675     10674     10676     10678     10677     10679
     10681     10680     10682     10684     10683     10685     10687     10686     10688
     10690     10689     10691     10693     10692     10694     10696     10695     10697
     10699     10698     10700     10702     10701     10703     10705     10704     10706
     10708     10707     10709     10711     10710     10712     10714     10713     10715
     10717     10716     10718     10720     10719     10721     10723     10722     10724
     10726     10725     10727     10729     10728     10730     10732     10731     10733
     10735     10734     10736     10738     10737     10739     10741     10740     10742
     10744     10743     10745     10747     10746     10748     10750     10749     10751
     10753     10752     10754     10756     10755     10757     10759     10758     10760
     10762     10761     10763     10765     10764     10766     10768     10767     10769
     10771     10770     10772     10774     10773     10775     10777     10776     10778
     10780     10779     10781     10783     10782     10784     10786     10785     10787
     10789     10788     10790     10792     10791     10793     10795     10794     10796
     10798     10797     10799     10801     10800     10802     10804     10803     10805
     10807     10806     10808     10810     10809     10811     10813     10812     10814
     10816     10815     10817     10819     10818     10820     10822     10821     10823
     10825     10824     10826     10828     10827     10829     10831     10830     10832
     10834     10833     10835     10837     10836     10838     10840     10839     10841
     10843     10842     10844     10846     10845     10847     10849     10848     10850
     10852     10851     10853     10855     10854     10856     10858     10857     10859
     10861     10860     10862     10864     10863     10865     10867     10866     10868
     10870     10869     10871     10873     10872     10874     10876     10875     10877
     10879     10878     10880     10882     10881     10883     10885     10884     10886
     10888     10887     10889     10891     10890     10892     10894     10893     10895
     10897     10896     10898     10900     10899     10901     10903     10902     10904
     10906     10905     10907     10909     10908     10910     10912     10911     10913
     10915     10914     10916     10918     10917     10919     10921     10920     10922
     10924     10923     10925     10927     10926     10928     10930     10929     10931
     10933     10932     10934     10936     10935     10937     10939     10938     10940
     10942     10941     10943     10945     10944     10946     10948     10947     10949
     10951     10950     10952     10954     10953     10955     10957     10956     10958
     10960     10959     10961     10963     10962     10964     10966     10965     10967
     10969     10968     10970     10972     10971     10973     10975     10974     10976
     10978     10977     10979     10981     10980     10982     10984     10983     10985
     10987     10986     10988     10990     10989     10991     10993     10992     10994
     10996     10995     10997     10999     10998     11000     11002     11001     11003
     11005     11004     11006     11008     11007     11009     11011     11010     11012
     11014     11013     11015     11017     11016     11018     11020     11019     11021
     11023     11022     11024     11026     11025     11027     11029     11028     11030
     11032     11031     11033     11035     11034     11036     11038     11037     11039
     11041     11040     11042     11044     11043     11045     11047     11046     11048
     11050     11049     11051     11053     11052     11054     11056     11055     11057
     11059     11058     11060     11062     11061     11063     11065     11064     11066
     11068     11067     11069     11071     11070     11072     11074     11073     11075
     11077     11076     11078     11080     11079     11081     11083     11082     11084
     11086     11085     11087     11089     11088     11090     11092     11091     11093
     11095     11094     11096     11098     11097     11099     11101     11100     11102
     11104     11103     11105     11107     11106     11108     11110     11109     11111
     11113     11112     11114     11116     11115     11117     11119     11118     11120
     11122     11121     11123     11125     11124     11126     11128     11127     11129
     11131     11130     11132     11134     11133     11135     11137     11136     11138
     11140     11139     11141     11143     11142     11144     11146     11145     11147
     11149     11148     11150     11152     11151     11153     11155     11154     11156
     11158     11157     11159     11161     11160     11162     11164     11163     11165
     11167     11166     11168     11170     11169     11171     11173     11172     11174
     11176     11175     11177     11179     11178     11180     11182     11181     11183
     11185     11184     11186     11188     11187     11189     11191     11190     11192
     11194     11193     11195     11197     11196     11198     11200     11199     11201
     11203     11202     11204     11206     11205     11207     11209     11208     11210
     11212     11211     11213     11215     11214     11216     11218     11217     11219
     11221     11220     11222     11224     11223     11225     11227     11226     11228
     11230     11229     11231     11233     11232     11234     11236     11235     11237
     11239     11238     11240     11242     11241     11243     11245     11244     11246
     11248     11247     11249     11251     11250     11252     11254     11253     11255
     11257     11256     11258     11260     11259     11261     11263     11262     11264
     11266     11265     11267     11269     11268     11270     11272     11271     11273
     11275     11274     11276     11278     11277     11279     11281     11280     11282
     11284     11283     11285     11287     11286     11288     11290     11289     11291
     11293     11292     11294     11296     11295     11297     11299     11298     11300
     11302     11301     11303     11305     11304     11306     11308     11307     11309
     11311     11310     11312     11314     11313     11315     11317     11316     11318
     11320     11319     11321     11323     11322     11324     11326     11325     11327
     11329     11328     11330     11332     11331     11333     11335     11334     11336
     11338     11337     11339     11341     11340     11342     11344     11343     11345
     11347     11346     11348     11350     11349     11351     11353     11352     11354
     11356     11355     11357     11359     11358     11360     11362     11361     11363
     11365     11364     11366     11368     11367     11369     11371     11370     11372
     11374     11373     11375     11377     11376     11378     11380     11379     11381
     11383     11382     11384     11386     11385     11387     11389     11388     11390
     11392     11391     11393     11395     11394     11396     11398     11397     11399
     11401     11400     11402     11404     11403     11405     11407     11406     11408
     11410     11409     11411     11413     11412     11414     11416     11415     11417
     11419     11418     11420     11422     11421     11423     11425     11424     11426
     11428     11427     11429     11431     11430     11432     11434     11433     11435
     11437     11436     11438     11440     11439     11441     11443     11442     11444
     11446     11445     11447     11449     11448     11450     11452     11451     11453
     11455     11454     11456     11458     11457     11459     11461     11460     11462
     11464     11463     11465     11467     11466     11468     11470     11469     11471
     11473     11472     11474     11476     11475     11477     11479     11478     11480
     11482     11481     11483     11485     11484     11486     11488     11487     11489
     11491     11490     11492     11494     11493     11495     11497     11496     11498
     11500     11499     11501     11503     11502     11504     11506     11505     11507
     11509     11508     11510     11512     11511     11513     11515     11514     11516
     11518     11517     11519     11521     11520     11522     11524     11523     11525
     11527     11526     11528     11530     11529     11531     11533     11532     11534
     11536     11535     11537     11539     11538     11540     11542     11541     11543
     11545     11544     11546     11548     11547     11549     11551     11550     11552
     11554     11553     11555     11557     11556     11558     11560     11559     11561
     11563     11562     11564     11566     11565     11567     11569     11568     11570
     11572     11571     11573     11575     11574     11576     11578     11577     11579
     11581     11580     11582     11584     11583     11585     11587     11586     11588
     11590     11589     11591     11593     11592     11594     11596     11595     11597
     11599     11598     11600     11602     11601     11603     11605     11604     11606
     11608     11607     11609     11611     11610     11612     11614     11613     11615
     11617     11616     11618     11620     11619     11621     11623     11622     11624
     11626     11625     11627     11629     11628     11630     11632     11631     11633
     11635     11634     11636     11638     11637     11639     11641     11640     11642
     11644     11643     11645     11647     11646     11648     11650     11649     11651
     11653     11652     11654     11656     11655     11657     11659     11658     11660
     11662     11661     11663     11665     11664     11666     11668     11667     11669
     11671     11670     11672     11674     11673     11675     11677     11676     11678
     11680     11679     11681     11683     11682     11684     11686     11685     11687
     11689     11688     11690     11692     11691     11693     11695     11694     11696
     11698     11697     11699     11701     11700     11702     11704     11703     11705
     11707     11706     11708     11710     11709     11711     11713     11712     11714
     11716     11715     11717     11719     11718     11720     11722     11721     11723
     11725     11724     11726     11728     11727     11729     11731     11730     11732
     11734     11733     11735     11737     11736     11738     11740     11739     11741
     11743     11742     11744     11746     11745     11747     11749     11748     11750
     11752     11751     11753     11755     11754     11756     11758     11757     11759
     11761     11760     11762     11764     11763     11765     11767     11766     11768
     11770     11769     11771     11773     11772     11774     11776     11775     11777
     11779     11778     11780     11782     11781     11783     11785     11784     11786
     11788     11787     11789     11791     11790     11792     11794     11793     11795
     11797     11796     11798     11800     11799     11801     11803     11802     11804
     11806     11805     11807     11809     11808     11810     11812     11811     11813
     11815     11814     11816     11818     11817     11819     11821     11820     11822
     11824     11823     11825     11827     11826     11828     11830     11829     11831
     11833     11832     11834     11836     11835     11837     11839     11838     11840
     11842     11841     11843     11845     11844     11846     11848     11847     11849
     11851     11850     11852     11854     11853     11855     11857     11856     11858
     11860     11859     11861     11863     11862     11864     11866     11865     11867
     11869     11868     11870     11872     11871     11873     11875     11874     11876
     11878     11877     11879     11881     11880     11882     11884     11883     11885
     11887     11886     11888     11890     11889     11891     11893     11892     11894
     11896     11895     11897     11899     11898     11900     11902     11901     11903
     11905     11904     11906     11908     11907     11909     11911     11910     11912
     11914     11913     11915     11917     11916     11918     11920     11919     11921
     11923     11922     11924     11926     11925     11927     11929     11928     11930
     11932     11931     11933     11935     11934     11936     11938     11937     11939
     11941     11940     11942     11944     11943     11945     11947     11946     11948
     11950     11949     11951     11953     11952     11954     11956     11955     11957
     11959     11958     11960     11962     11961     11963     11965     11964     11966
     11968     11967     11969     11971     11970     11972     11974     11973     11975
     11977     11976     11978     11980     11979     11981     11983     11982     11984
     11986     11985     11987     11989     11988     11990     11992     11991     11993
     11995     11994     11996     11998     11997     11999     12001     12000     12002
     12004     12003     12005     12007     12006     12008     12010     12009     12011
     12013     12012     12014     12016     12015     12017     12019     12018     12020
     12022     12021     12023     12025     12024     12026     12028     12027     12029
     12031     12030     12032     12034     12033     12035     12037     12036     12038
     12040     12039     12041     12043     12042     12044     12046     12045     12047
     12049     12048     12050     12052     12051     12053     12055     12054     12056
     12058     12057     12059     12061     12060     12062     12064     12063     12065
     12067     12066     12068     12070     12069     12071     12073     12072     12074
     12076     12075     12077     12079     12078     12080     12082     12081     12083
     12085     12084     12086     12088     12087     12089     12091     12090     12092
     12094     12093     12095     12097     12096     12098     12100     12099     12101
     12103     12102     12104     12106     12105     12107     12109     12108     12110
     12112     12111     12113     12115     12114     12116     12118     12117     12119
     12121     12120     12122     12124     12123     12125     12127     12126     12128
     12130     12129     12131     12133     12132     12134     12136     12135     12137
     12139     12138     12140     12142     12141     12143     12145     12144     12146
     12148     12147     12149     12151     12150     12152     12154     12153     12155
     12157     12156     12158     12160     12159     12161     12163     12162     12164
     12166     12165     12167     12169     12168     12170     12172     12171     12173
     12175     12174     12176     12178     12177     12179     12181     12180     12182
     12184     12183     12185     12187     12186     12188     12190     12189     12191
     12193     12192     12194     12196     12195     12197     12199     12198     12200
     12202     12201     12203     12205     12204     12206     12208     12207     12209
     12211     12210     12212     12214     12213     12215     12217     12216     12218
     12220     12219     12221     12223     12222     12224     12226     12225     12227
     12229     12228     12230     12232     12231     12233     12235     12234     12236
     12238     12237     12239     12241     12240     12242     12244     12243     12245
     12247     12246     12248     12250     12249     12251     12253     12252     12254
     12256     12255     12257     12259     12258     12260     12262     12261     12263
     12265     12264     12266     12268     12267     12269     12271     12270     12272
     12274     12273     12275     12277     12276     12278     12280     12279     12281
     12283     12282     12284     12286     12285     12287     12289     12288     12290
     12292     12291     12293     12295     12294     12296     12298     12297     12299
     12301     12300     12302     12304     12303     12305     12307     12306     12308
     12310     12309     12311     12313     12312     12314     12316     12315     12317
     12319     12318     12320     12322     12321     12323     12325     12324     12326
     12328     12327     12329     12331     12330     12332     12334     12333     12335
     12337     12336     12338     12340     12339     12341     12343     12342     12344
     12346     12345     12347     12349     12348     12350     12352     12351     12353
     12355     12354     12356     12358     12357     12359     12361     12360     12362
     12364     12363     12365     12367     12366     12368     12370     12369     12371
     12373     12372     12374     12376     12375     12377     12379     12378     12380
     12382     12381     12383     12385     12384     12386     12388     12387     12389
     12391     12390     12392     12394     12393     12395     12397     12396     12398
     12400     12399     12401     12403     12402     12404     12406     12405     12407
     12409     12408     12410     12412     12411     12413     12415     12414     12416
     12418     12417     12419     12421     12420     12422     12424     12423     12425
     12427     12426     12428     12430     12429     12431     12433     12432     12434
     12436     12435     12437     12439     12438     12440     12442     12441     12443
     12445     12444     12446     12448     12447     12449     12451     12450     12452
     12454     12453     12455     12457     12456     12458     12460     12459     12461
     12463     12462     12464     12466     12465     12467     12469     12468     12470
     12472     12471     12473     12475     12474     12476     12478     12477     12479
     12481     12480     12482     12484     12483     12485     12487     12486     12488
     12490     12489     12491     12493     12492     12494     12496     12495     12497
     12499     12498     12500     12502     12501     12503     12505     12504     12506
     12508     12507     12509     12511     12510     12512     12514     12513     12515
     12517     12516     12518     12520     12519     12521     12523     12522     12524
     12526     12525     12527     12529     12528     12530     12532     12531     12533
     12535     12534     12536     12538     12537     12539     12541     12540     12542
     12544     12543     12545     12547     12546     12548     12550     12549     12551
     12553     12552     12554     12556     12555     12557     12559     12558     12560
     12562     12561     12563     12565     12564     12566     12568     12567     12569
     12571     12570     12572     12574     12573     12575     12577     12576     12578
     12580     12579     12581     12583     12582     12584     12586     12585     12587
     12589     12588     12590     12592     12591     12593     12595     12594     12596
     12598     12597     12599     12601     12600     12602     12604     12603     12605
     12607     12606     12608     12610     12609     12611     12613     12612     12614
     12616     12615     12617     12619     12618     12620     12622     12621     12623
     12625     12624     12626     12628     12627     12629     12631     12630     12632
     12634     12633     12635     12637     12636     12638     12640     12639     12641
     12643     12642     12644     12646     12645     12647     12649     12648     12650
     12652     12651     12653     12655     12654     12656     12658     12657     12659
     12661     12660     12662     12664     12663     12665     12667     12666     12668
     12670     12669     12671     12673     12672     12674     12676     12675     12677
     12679     12678     12680     12682     12681     12683     12685     12684     12686
     12688     12687     12689     12691     12690     12692     12694     12693     12695
     12697     12696     12698     12700     12699     12701     12703     12702     12704
     12706     12705     12707     12709     12708     12710     12712     12711     12713
     12715     12714     12716     12718     12717     12719     12721     12720     12722
     12724     12723     12725     12727     12726     12728     12730     12729     12731
     12733     12732     12734     12736     12735     12737     12739     12738     12740
     12742     12741     12743     12745     12744     12746     12748     12747     12749
     12751     12750     12752     12754     12753     12755     12757     12756     12758
     12760     12759     12761     12763     12762     12764     12766     12765     12767
     12769     12768     12770     12772     12771     12773     12775     12774     12776
     12778     12777     12779     12781     12780     12782     12784     12783     12785
     12787     12786     12788     12790     12789     12791     12793     12792     12794
     12796     12795     12797     12799     12798     12800     12802     12801     12803
     12805     12804     12806     12808     12807     12809     12811     12810     12812
     12814     12813     12815     12817     12816     12818     12820     12819     12821
     12823     12822     12824     12826     12825     12827     12829     12828     12830
     12832     12831     12833     12835     12834     12836     12838     12837     12839
     12841     12840     12842     12844     12843     12845     12847     12846     12848
     12850     12849     12851     12853     12852     12854     12856     12855     12857
     12859     12858     12860     12862     12861     12863     12865     12864     12866
     12868     12867     12869     12871     12870     12872     12874     12873     12875
     12877     12876     12878     12880     12879     12881     12883     12882     12884
     12886     12885     12887     12889     12888     12890     12892     12891     12893
     12895     12894     12896     12898     12897     12899     12901     12900     12902
     12904     12903     12905     12907     12906     12908     12910     12909     12911
     12913     12912     12914     12916     12915     12917     12919     12918     12920
     12922     12921     12923     12925     12924     12926     12928     12927     12929
     12931     12930     12932     12934     12933     12935     12937     12936     12938
     12940     12939     12941     12943     12942     12944     12946     12945     12947
     12949     12948     12950     12952     12951     12953     12955     12954     12956
     12958     12957     12959     12961     12960     12962     12964     12963     12965
     12967     12966     12968     12970     12969     12971     12973     12972     12974
     12976     12975     12977     12979     12978     12980     12982     12981     12983
     12985     12984     12986     12988     12987     12989     12991     12990     12992
     12994     12993     12995     12997     12996     12998     13000     12999     13001
     13003     13002     13004     13006     13005     13007     13009     13008     13010
     13012     13011     13013     13015     13014     13016     13018     13017     13019
     13021     13020     13022     13024     13023     13025     13027     13026     13028
     13030     13029     13031     13033     13032     13034     13036     13035     13037
     13039     13038     13040     13042     13041     13043     13045     13044     13046
     13048     13047     13049     13051     13050     13052     13054     13053     13055
     13057     13056     13058     13060     13059     13061     13063     13062     13064
     13066     13065     13067     13069     13068     13070     13072     13071     13073
     13075     13074     13076     13078     13077     13079     13081     13080     13082
     13084     13083     13085     13087     13086     13088     13090     13089     13091
     13093     13092     13094     13096     13095     13097     13099     13098     13100
     13102     13101     13103     13105     13104     13106     13108     13107     13109
     13111     13110     13112     13114     13113     13115     13117     13116     13118
     13120     13119     13121     13123     13122     13124     13126     13125     13127
     13129     13128     13130     13132     13131     13133     13135     13134     13136
     13138     13137     13139     13141     13140     13142     13144     13143     13145
     13147     13146     13148     13150     13149     13151     13153     13152     13154
     13156     13155     13157     13159     13158     13160     13162     13161     13163
     13165     13164     13166     13168     13167     13169     13171     13170     13172
     13174     13173     13175     13177     13176     13178     13180     13179     13181
     13183     13182     13184     13186     13185     13187     13189     13188     13190
     13192     13191     13193     13195     13194     13196     13198     13197     13199
     13201     13200     13202     13204     13203     13205     13207     13206     13208
     13210     13209     13211     13213     13212     13214     13216     13215     13217
     13219     13218     13220     13222     13221     13223     13225     13224     13226
     13228     13227     13229     13231     13230     13232     13234     13233     13235
     13237     13236     13238     13240     13239     13241     13243     13242     13244
     13246     13245     13247     13249     13248     13250     13252     13251     13253
     13255     13254     13256     13258     13257     13259     13261     13260     13262
     13264     13263     13265     13267     13266     13268     13270     13269     13271
     13273     13272     13274     13276     13275     13277     13279     13278     13280
     13282     13281     13283     13285     13284     13286     13288     13287     13289
     13291     13290     13292     13294     13293     13295     13297     13296     13298
     13300     13299     13301     13303     13302     13304     13306     13305     13307
     13309     13308     13310     13312     13311     13313     13315     13314     13316
     13318     13317     13319     13321     13320     13322     13324     13323     13325
     13327     13326     13328     13330     13329     13331     13333     13332     13334
     13336     13335     13337     13339     13338     13340     13342     13341     13343
     13345     13344     13346     13348     13347     13349     13351     13350     13352
     13354     13353     13355     13357     13356     13358     13360     13359     13361
     13363     13362     13364     13366     13365     13367     13369     13368     13370
     13372     13371     13373     13375     13374     13376     13378     13377     13379
     13381     13380     13382     13384     13383     13385     13387     13386     13388
     13390     13389     13391     13393     13392     13394     13396     13395     13397
     13399     13398     13400     13402     13401     13403     13405     13404     13406
     13408     13407     13409     13411     13410     13412     13414     13413     13415
     13417     13416     13418     13420     13419     13421     13423     13422     13424
     13426     13425     13427     13429     13428     13430     13432     13431     13433
     13435     13434     13436     13438     13437     13439     13441     13440     13442
     13444     13443     13445     13447     13446     13448     13450     13449     13451
     13453     13452     13454     13456     13455     13457     13459     13458     13460
     13462     13461     13463     13465     13464     13466     13468     13467     13469
     13471     13470     13472     13474     13473     13475     13477     13476     13478
     13480     13479     13481     13483     13482     13484     13486     13485     13487
     13489     13488     13490     13492     13491     13493     13495     13494     13496
     13498     13497     13499     13501     13500     13502     13504     13503     13505
     13507     13506     13508     13510     13509     13511     13513     13512     13514
     13516     13515     13517     13519     13518     13520     13522     13521     13523
     13525     13524     13526     13528     13527     13529     13531     13530     13532
     13534     13533     13535     13537     13536     13538     13540     13539     13541
     13543     13542     13544     13546     13545     13547     13549     13548     13550
     13552     13551     13553     13555     13554     13556     13558     13557     13559
     13561     13560     13562     13564     13563     13565     13567     13566     13568
     13570     13569     13571     13573     13572     13574     13576     13575     13577
     13579     13578     13580     13582     13581     13583     13585     13584     13586
     13588     13587     13589     13591     13590     13592     13594     13593     13595
     13597     13596     13598     13600     13599     13601     13603     13602     13604
     13606     13605     13607     13609     13608     13610     13612     13611     13613
     13615     13614     13616     13618     13617     13619     13621     13620     13622
     13624     13623     13625     13627     13626     13628     13630     13629     13631
     13633     13632     13634     13636     13635     13637     13639     13638     13640
     13642     13641     13643     13645     13644     13646     13648     13647     13649
     13651     13650     13652     13654     13653     13655     13657     13656     13658
     13660     13659     13661     13663     13662     13664     13666     13665     13667
     13669     13668     13670     13672     13671     13673     13675     13674     13676
     13678     13677     13679     13681     13680     13682     13684     13683     13685
     13687     13686     13688     13690     13689     13691     13693     13692     13694
     13696     13695     13697     13699     13698     13700     13702     13701     13703
     13705     13704     13706     13708     13707     13709     13711     13710     13712
     13714     13713     13715     13717     13716     13718     13720     13719     13721
     13723     13722     13724     13726     13725     13727     13729     13728     13730
     13732     13731     13733     13735     13734     13736     13738     13737     13739
     13741     13740     13742     13744     13743     13745     13747     13746     13748
     13750     13749     13751     13753     13752     13754     13756     13755     13757
     13759     13758     13760     13762     13761     13763     13765     13764     13766
     13768     13767     13769     13771     13770     13772     13774     13773     13775
     13777     13776     13778     13780     13779     13781     13783     13782     13784
     13786     13785     13787     13789     13788     13790     13792     13791     13793
     13795     13794     13796     13798     13797     13799     13801     13800     13802
     13804     13803     13805     13807     13806     13808     13810     13809     13811
     13813     13812     13814     13816     13815     13817     13819     13818     13820
     13822     13821     13823     13825     13824     13826     13828     13827     13829
     13831     13830     13832     13834     13833     13835     13837     13836     13838
     13840     13839     13841     13843     13842     13844     13846     13845     13847
     13849     13848     13850     13852     13851     13853     13855     13854     13856
     13858     13857     13859     13861     13860     13862     13864     13863     13865
     13867     13866     13868     13870     13869     13871     13873     13872     13874
     13876     13875     13877     13879     13878     13880     13882     13881     13883
     13885     13884     13886     13888     13887     13889     13891     13890     13892
     13894     13893     13895     13897     13896     13898     13900     13899     13901
     13903     13902     13904     13906     13905     13907     13909     13908     13910
     13912     13911     13913     13915     13914     13916     13918     13917     13919
     13921     13920     13922     13924     13923     13925     13927     13926     13928
     13930     13929     13931     13933     13932     13934     13936     13935     13937
     13939     13938     13940     13942     13941     13943     13945     13944     13946
     13948     13947     13949     13951     13950     13952     13954     13953     13955
     13957     13956     13958     13960     13959     13961     13963     13962     13964
     13966     13965     13967     13969     13968     13970     13972     13971     13973
     13975     13974     13976     13978     13977     13979     13981     13980     13982
     13984     13983     13985     13987     13986     13988     13990     13989     13991
     13993     13992     13994     13996     13995     13997     13999     13998     14000
     14002     14001     14003     14005     14004     14006     14008     14007     14009
     14011     14010     14012     14014     14013     14015     14017     14016     14018
     14020     14019     14021     14023     14022     14024     14026     14025     14027
     14029     14028     14030     14032     14031     14033     14035     14034     14036
     14038     14037     14039     14041     14040     14042     14044     14043     14045
     14047     14046     14048     14050     14049     14051     14053     14052     14054
     14056     14055     14057     14059     14058     14060     14062     14061     14063
     14065     14064     14066     14068     14067     14069     14071     14070     14072
     14074     14073     14075     14077     14076     14078     14080     14079     14081
     14083     14082     14084     14086     14085     14087     14089     14088     14090
     14092     14091     14093     14095     14094     14096     14098     14097     14099
     14101     14100     14102     14104     14103     14105     14107     14106     14108
     14110     14109     14111     14113     14112     14114     14116     14115     14117
     14119     14118     14120     14122     14121     14123     14125     14124     14126
     14128     14127     14129     14131     14130     14132     14134     14133     14135
     14137     14136     14138     14140     14139     14141     14143     14142     14144
     14146     14145     14147     14149     14148     14150     14152     14151     14153
     14155     14154     14156     14158     14157     14159     14161     14160     14162
     14164     14163     14165     14167     14166     14168     14170     14169     14171
     14173     14172     14174     14176     14175     14177     14179     14178     14180
     14182     14181     14183     14185     14184     14186     14188     14187     14189
     14191     14190     14192     14194     14193     14195     14197     14196     14198
     14200     14199     14201     14203     14202     14204     14206     14205     14207
     14209     14208     14210     14212     14211     14213     14215     14214     14216
     14218     14217     14219     14221     14220     14222     14224     14223     14225
     14227     14226     14228     14230     14229     14231     14233     14232     14234
     14236     14235     14237     14239     14238     14240     14242     14241     14243
     14245     14244     14246     14248     14247     14249     14251     14250     14252
     14254     14253     14255     14257     14256     14258     14260     14259     14261
     14263     14262     14264     14266     14265     14267     14269     14268     14270
     14272     14271     14273     14275     14274     14276     14278     14277     14279
     14281     14280     14282     14284     14283     14285     14287     14286     14288
     14290     14289     14291     14293     14292     14294     14296     14295     14297
     14299     14298     14300     14302     14301     14303     14305     14304     14306
     14308     14307     14309     14311     14310     14312     14314     14313     14315
     14317     14316     14318     14320     14319     14321     14323     14322     14324
     14326     14325     14327     14329     14328     14330     14332     14331     14333
     14335     14334     14336     14338     14337     14339     14341     14340     14342
     14344     14343     14345     14347     14346     14348     14350     14349     14351
     14353     14352     14354     14356     14355     14357     14359     14358     14360
     14362     14361     14363     14365     14364     14366     14368     14367     14369
     14371     14370     14372     14374     14373     14375     14377     14376     14378
     14380     14379     14381     14383     14382     14384     14386     14385     14387
     14389     14388     14390     14392     14391     14393     14395     14394     14396
     14398     14397     14399     14401     14400     14402     14404     14403     14405
     14407     14406     14408     14410     14409     14411     14413     14412     14414
     14416     14415     14417     14419     14418     14420     14422     14421     14423
     14425     14424     14426     14428     14427     14429     14431     14430     14432
     14434     14433     14435     14437     14436     14438     14440     14439     14441
     14443     14442     14444     14446     14445     14447     14449     14448     14450
     14452     14451     14453     14455     14454     14456     14458     14457     14459
     14461     14460     14462     14464     14463     14465     14467     14466     14468
     14470     14469     14471     14473     14472     14474     14476     14475     14477
     14479     14478     14480     14482     14481     14483     14485     14484     14486
     14488     14487     14489     14491     14490     14492     14494     14493     14495
     14497     14496     14498     14500     14499     14501     14503     14502     14504
     14506     14505     14507     14509     14508     14510     14512     14511     14513
     14515     14514     14516     14518     14517     14519     14521     14520     14522
     14524     14523     14525     14527     14526     14528     14530     14529     14531
     14533     14532     14534     14536     14535     14537     14539     14538     14540
     14542     14541     14543     14545     14544     14546     14548     14547     14549
     14551     14550     14552     14554     14553     14555     14557     14556     14558
     14560     14559     14561     14563     14562     14564     14566     14565     14567
     14569     14568     14570     14572     14571     14573     14575     14574     14576
     14578     14577     14579     14581     14580     14582     14584     14583     14585
     14587     14586     14588     14590     14589     14591     14593     14592     14594
     14596     14595     14597     14599     14598     14600     14602     14601     14603
     14605     14604     14606     14608     14607     14609     14611     14610     14612
     14614     14613     14615     14617     14616     14618     14620     14619     14621
     14623     14622     14624     14626     14625     14627     14629     14628     14630
     14632     14631     14633     14635     14634     14636     14638     14637     14639
     14641     14640     14642     14644     14643     14645     14647     14646     14648
     14650     14649     14651     14653     14652     14654     14656     14655     14657
     14659     14658     14660     14662     14661     14663     14665     14664     14666
     14668     14667     14669     14671     14670     14672     14674     14673     14675
     14677     14676     14678     14680     14679     14681     14683     14682     14684
     14686     14685     14687     14689     14688     14690     14692     14691     14693
     14695     14694     14696     14698     14697     14699     14701     14700     14702
     14704     14703     14705     14707     14706     14708     14710     14709     14711
     14713     14712     14714     14716     14715     14717     14719     14718     14720
     14722     14721     14723     14725     14724     14726     14728     14727     14729
     14731     14730     14732     14734     14733     14735     14737     14736     14738
     14740     14739     14741     14743     14742     14744     14746     14745     14747
     14749     14748     14750     14752     14751     14753     14755     14754     14756
     14758     14757     14759     14761     14760     14762     14764     14763     14765
     14767     14766     14768     14770     14769     14771     14773     14772     14774
     14776     14775     14777     14779     14778     14780     14782     14781     14783
     14785     14784     14786     14788     14787     14789     14791     14790     14792
     14794     14793     14795     14797     14796     14798     14800     14799     14801
     14803     14802     14804     14806     14805     14807     14809     14808     14810
     14812     14811     14813     14815     14814     14816     14818     14817     14819
     14821     14820     14822     14824     14823     14825     14827     14826     14828
     14830     14829     14831     14833     14832     14834     14836     14835     14837
     14839     14838     14840     14842     14841     14843     14845     14844     14846
     14848     14847     14849     14851     14850     14852     14854     14853     14855
     14857     14856     14858     14860     14859     14861     14863     14862     14864
     14866     14865     14867     14869     14868     14870     14872     14871     14873
     14875     14874     14876     14878     14877     14879     14881     14880     14882
     14884     14883     14885     14887     14886     14888     14890     14889     14891
     14893     14892     14894     14896     14895     14897     14899     14898     14900
     14902     14901     14903     14905     14904     14906     14908     14907     14909
     14911     14910     14912     14914     14913     14915     14917     14916     14918
     14920     14919     14921     14923     14922     14924     14926     14925     14927
     14929     14928     14930     14932     14931     14933     14935     14934     14936
     14938     14937     14939     14941     14940     14942     14944     14943     14945
     14947     14946     14948     14950     14949     14951     14953     14952     14954
     14956     14955     14957     14959     14958     14960     14962     14961     14963
     14965     14964     14966     14968     14967     14969     14971     14970     14972
     14974     14973     14975     14977     14976     14978     14980     14979     14981
     14983     14982     14984     14986     14985     14987     14989     14988     14990
     14992     14991     14993     14995     14994     14996     14998     14997     14999
     15001     15000     15002     15004     15003     15005     15007     15006     15008
     15010     15009     15011     15013     15012     15014     15016     15015     15017
     15019     15018     15020     15022     15021     15023     15025     15024     15026
     15028     15027     15029     15031     15030     15032     15034     15033     15035
     15037     15036     15038     15040     15039     15041     15043     15042     15044
     15046     15045     15047     15049     15048     15050     15052     15051     15053
     15055     15054     15056     15058     15057     15059     15061     15060     15062
     15064     15063     15065     15067     15066     15068     15070     15069     15071
     15073     15072     15074     15076     15075     15077     15079     15078     15080
     15082     15081     15083     15085     15084     15086     15088     15087     15089
     15091     15090     15092     15094     15093     15095     15097     15096     15098
     15100     15099     15101     15103     15102     15104     15106     15105     15107
     15109     15108     15110     15112     15111     15113     15115     15114     15116
     15118     15117     15119     15121     15120     15122     15124     15123     15125
     15127     15126     15128     15130     15129     15131     15133     15132     15134
     15136     15135     15137     15139     15138     15140     15142     15141     15143
     15145     15144     15146     15148     15147     15149     15151     15150     15152
     15154     15153     15155     15157     15156     15158     15160     15159     15161
     15163     15162     15164     15166     15165     15167     15169     15168     15170
     15172     15171     15173     15175     15174     15176     15178     15177     15179
     15181     15180     15182     15184     15183     15185     15187     15186     15188
     15190     15189     15191     15193     15192     15194     15196     15195     15197
     15199     15198     15200     15202     15201     15203     15205     15204     15206
     15208     15207     15209     15211     15210     15212     15214     15213     15215
     15217     15216     15218     15220     15219     15221     15223     15222     15224
     15226     15225     15227     15229     15228     15230     15232     15231     15233
     15235     15234     15236     15238     15237     15239     15241     15240     15242
     15244     15243     15245     15247     15246     15248     15250     15249     15251
     15253     15252     15254     15256     15255     15257     15259     15258     15260
     15262     15261     15263     15265     15264     15266     15268     15267     15269
     15271     15270     15272     15274     15273     15275     15277     15276     15278
     15280     15279     15281     15283     15282     15284     15286     15285     15287
     15289     15288     15290     15292     15291     15293     15295     15294     15296
     15298     15297     15299     15301     15300     15302     15304     15303     15305
     15307     15306     15308     15310     15309     15311     15313     15312     15314
     15316     15315     15317     15319     15318     15320     15322     15321     15323
     15325     15324     15326     15328     15327     15329     15331     15330     15332
     15334     15333     15335     15337     15336     15338     15340     15339     15341
     15343     15342     15344     15346     15345     15347     15349     15348     15350
     15352     15351     15353     15355     15354     15356     15358     15357     15359
     15361     15360     15362     15364     15363     15365     15367     15366     15368
     15370     15369     15371     15373     15372     15374     15376     15375     15377
     15379     15378     15380     15382     15381     15383     15385     15384     15386
     15388     15387     15389     15391     15390     15392     15394     15393     15395
     15397     15396     15398     15400     15399     15401     15403     15402     15404
     15406     15405     15407     15409     15408     15410     15412     15411     15413
     15415     15414     15416     15418     15417     15419     15421     15420     15422
     15424     15423     15425     15427     15426     15428     15430     15429     15431
     15433     15432     15434     15436     15435     15437     15439     15438     15440
     15442     15441     15443     15445     15444     15446     15448     15447     15449
     15451     15450     15452     15454     15453     15455     15457     15456     15458
     15460     15459     15461     15463     15462     15464     15466     15465     15467
     15469     15468     15470     15472     15471     15473     15475     15474     15476
     15478     15477     15479     15481     15480     15482     15484     15483     15485
     15487     15486     15488     15490     15489     15491     15493     15492     15494
     15496     15495     15497     15499     15498     15500     15502     15501     15503
     15505     15504     15506     15508     15507     15509     15511     15510     15512
     15514     15513     15515     15517     15516     15518     15520     15519     15521
     15523     15522     15524     15526     15525     15527     15529     15528     15530
     15532     15531     15533     15535     15534     15536     15538     15537     15539
     15541     15540     15542     15544     15543     15545     15547     15546     15548
     15550     15549     15551     15553     15552     15554     15556     15555     15557
     15559     15558     15560     15562     15561     15563     15565     15564     15566
     15568     15567     15569     15571     15570     15572     15574     15573     15575
     15577     15576     15578     15580     15579     15581     15583     15582     15584
     15586     15585     15587     15589     15588     15590     15592     15591     15593
     15595     15594     15596     15598     15597     15599     15601     15600     15602
     15604     15603     15605     15607     15606     15608     15610     15609     15611
     15613     15612     15614     15616     15615     15617     15619     15618     15620
     15622     15621     15623     15625     15624     15626     15628     15627     15629
     15631     15630     15632     15634     15633     15635     15637     15636     15638
     15640     15639     15641     15643     15642     15644     15646     15645     15647
     15649     15648     15650     15652     15651     15653     15655     15654     15656
     15658     15657     15659     15661     15660     15662     15664     15663     15665
     15667     15666     15668     15670     15669     15671     15673     15672     15674
     15676     15675     15677     15679     15678     15680     15682     15681     15683
     15685     15684     15686     15688     15687     15689     15691     15690     15692
     15694     15693     15695     15697     15696     15698     15700     15699     15701
     15703     15702     15704     15706     15705     15707     15709     15708     15710
     15712     15711     15713     15715     15714     15716     15718     15717     15719
     15721     15720     15722     15724     15723     15725     15727     15726     15728
     15730     15729     15731     15733     15732     15734     15736     15735     15737
     15739     15738     15740     15742     15741     15743     15745     15744     15746
     15748     15747     15749     15751     15750     15752     15754     15753     15755
     15757     15756     15758     15760     15759     15761     15763     15762     15764
     15766     15765     15767     15769     15768     15770     15772     15771     15773
     15775     15774     15776     15778     15777     15779     15781     15780     15782
     15784     15783     15785     15787     15786     15788     15790     15789     15791
     15793     15792     15794     15796     15795     15797     15799     15798     15800
     15802     15801     15803     15805     15804     15806     15808     15807     15809
     15811     15810     15812     15814     15813     15815     15817     15816     15818
     15820     15819     15821     15823     15822     15824     15826     15825     15827
     15829     15828     15830     15832     15831     15833     15835     15834     15836
     15838     15837     15839     15841     15840     15842     15844     15843     15845
     15847     15846     15848     15850     15849     15851     15853     15852     15854
     15856     15855     15857     15859     15858     15860     15862     15861     15863
     15865     15864     15866     15868     15867     15869     15871     15870     15872
     15874     15873     15875     15877     15876     15878     15880     15879     15881
     15883     15882     15884     15886     15885     15887     15889     15888     15890
     15892     15891     15893     15895     15894     15896     15898     15897     15899
     15901     15900     15902     15904     15903     15905     15907     15906     15908
     15910     15909     15911     15913     15912     15914     15916     15915     15917
     15919     15918     15920     15922     15921     15923     15925     15924     15926
     15928     15927     15929     15931     15930     15932     15934     15933     15935
     15937     15936     15938     15940     15939     15941     15943     15942     15944
     15946     15945     15947     15949     15948     15950     15952     15951     15953
     15955     15954     15956     15958     15957     15959     15961     15960     15962
     15964     15963     15965     15967     15966     15968     15970     15969     15971
     15973     15972     15974     15976     15975     15977     15979     15978     15980
     15982     15981     15983     15985     15984     15986     15988     15987     15989
     15991     15990     15992     15994     15993     15995     15997     15996     15998
     16000     15999     16001     16003     16002     16004     16006     16005     16007
     16009     16008     16010     16012     16011     16013     16015     16014     16016
     16018     16017     16019     16021     16020     16022     16024     16023     16025
     16027     16026     16028     16030     16029     16031     16033     16032     16034
     16036     16035     16037     16039     16038     16040     16042     16041     16043
     16045     16044     16046     16048     16047     16049     16051     16050     16052
     16054     16053     16055     16057     16056     16058     16060     16059     16061
     16063     16062     16064     16066     16065     16067     16069     16068     16070
     16072     16071     16073     16075     16074     16076     16078     16077     16079
     16081     16080     16082     16084     16083     16085     16087     16086     16088
     16090     16089     16091     16093     16092     16094     16096     16095     16097
     16099     16098     16100     16102     16101     16103     16105     16104     16106
     16108     16107     16109     16111     16110     16112     16114     16113     16115
     16117     16116     16118     16120     16119     16121     16123     16122     16124
     16126     16125     16127     16129     16128     16130     16132     16131     16133
     16135     16134     16136     16138     16137     16139     16141     16140     16142
     16144     16143     16145     16147     16146     16148     16150     16149     16151
     16153     16152     16154     16156     16155     16157     16159     16158     16160
     16162     16161     16163     16165     16164     16166     16168     16167     16169
     16171     16170     16172     16174     16173     16175     16177     16176     16178
     16180     16179     16181     16183     16182     16184     16186     16185     16187
     16189     16188     16190     16192     16191     16193     16195     16194     16196
     16198     16197     16199     16201     16200     16202     16204     16203     16205
     16207     16206     16208     16210     16209     16211     16213     16212     16214
     16216     16215     16217     16219     16218     16220     16222     16221     16223
     16225     16224     16226     16228     16227     16229     16231     16230     16232
     16234     16233     16235     16237     16236     16238     16240     16239     16241
     16243     16242     16244     16246     16245     16247     16249     16248     16250
     16252     16251     16253     16255     16254     16256     16258     16257     16259
     16261     16260     16262     16264     16263     16265     16267     16266     16268
     16270     16269     16271     16273     16272     16274     16276     16275     16277
     16279     16278     16280     16282     16281     16283     16285     16284     16286
     16288     16287     16289     16291     16290     16292     16294     16293     16295
     16297     16296     16298     16300     16299     16301     16303     16302     16304
     16306     16305     16307     16309     16308     16310     16312     16311     16313
     16315     16314     16316     16318     16317     16319     16321     16320     16322
     16324     16323     16325     16327     16326     16328     16330     16329     16331
     16333     16332     16334     16336     16335     16337     16339     16338     16340
     16342     16341     16343     16345     16344     16346     16348     16347     16349
     16351     16350     16352     16354     16353     16355     16357     16356     16358
     16360     16359     16361     16363     16362     16364     16366     16365     16367
     16369     16368     16370     16372     16371     16373     16375     16374     16376
     16378     16377     16379     16381     16380     16382     16384     16383     16385
     16387     16386     16388     16390     16389     16391     16393     16392     16394
     16396     16395     16397     16399     16398     16400     16402     16401     16403
     16405     16404     16406     16408     16407     16409     16411     16410     16412
     16414     16413     16415     16417     16416     16418     16420     16419     16421
     16423     16422     16424     16426     16425     16427     16429     16428     16430
     16432     16431     16433     16435     16434     16436     16438     16437     16439
     16441     16440     16442     16444     16443     16445     16447     16446     16448
     16450     16449     16451     16453     16452     16454     16456     16455     16457
     16459     16458     16460     16462     16461     16463     16465     16464     16466
     16468     16467     16469     16471     16470     16472     16474     16473     16475
     16477     16476     16478     16480     16479     16481     16483     16482     16484
     16486     16485     16487     16489     16488     16490     16492     16491     16493
     16495     16494     16496     16498     16497     16499     16501     16500     16502
     16504     16503     16505     16507     16506     16508     16510     16509     16511
     16513     16512     16514     16516     16515     16517     16519     16518     16520
     16522     16521     16523     16525     16524     16526     16528     16527     16529
     16531     16530     16532     16534     16533     16535     16537     16536     16538
     16540     16539     16541     16543     16542     16544     16546     16545     16547
     16549     16548     16550     16552     16551     16553     16555     16554     16556
     16558     16557     16559     16561     16560     16562     16564     16563     16565
     16567     16566     16568     16570     16569     16571     16573     16572     16574
     16576     16575     16577     16579     16578     16580     16582     16581     16583
     16585     16584     16586     16588     16587     16589     16591     16590     16592
     16594     16593     16595     16597     16596     16598     16600     16599     16601
     16603     16602     16604     16606     16605     16607     16609     16608     16610
     16612     16611     16613     16615     16614     16616     16618     16617     16619
     16621     16620     16622     16624     16623     16625     16627     16626     16628
     16630     16629     16631     16633     16632     16634     16636     16635     16637
     16639     16638     16640     16642     16641     16643     16645     16644     16646
     16648     16647     16649     16651     16650     16652     16654     16653     16655
     16657     16656     16658     16660     16659     16661     16663     16662     16664
     16666     16665     16667     16669     16668     16670     16672     16671     16673
     16675     16674     16676     16678     16677     16679     16681     16680     16682
     16684     16683     16685     16687     16686     16688     16690     16689     16691
     16693     16692     16694     16696     16695     16697     16699     16698     16700
     16702     16701     16703     16705     16704     16706     16708     16707     16709
     16711     16710     16712     16714     16713     16715     16717     16716     16718
     16720     16719     16721     16723     16722     16724     16726     16725     16727
     16729     16728     16730     16732     16731     16733     16735     16734     16736
     16738     16737     16739     16741     16740     16742     16744     16743     16745
     16747     16746     16748     16750     16749     16751     16753     16752     16754
     16756     16755     16757     16759     16758     16760     16762     16761     16763
     16765     16764     16766     16768     16767     16769     16771     16770     16772
     16774     16773     16775     16777     16776     16778     16780     16779     16781
     16783     16782     16784     16786     16785     16787     16789     16788     16790
     16792     16791     16793     16795     16794     16796     16798     16797     16799
     16801     16800     16802     16804     16803     16805     16807     16806     16808
     16810     16809     16811     16813     16812     16814     16816     16815     16817
     16819     16818     16820     16822     16821     16823     16825     16824     16826
     16828     16827     16829     16831     16830     16832     16834     16833     16835
     16837     16836     16838     16840     16839     16841     16843     16842     16844
     16846     16845     16847     16849     16848     16850     16852     16851     16853
     16855     16854     16856     16858     16857     16859     16861     16860     16862
     16864     16863     16865     16867     16866     16868     16870     16869     16871
     16873     16872     16874     16876     16875     16877     16879     16878     16880
     16882     16881     16883     16885     16884     16886     16888     16887     16889
     16891     16890     16892     16894     16893     16895     16897     16896     16898
     16900     16899     16901     16903     16902     16904     16906     16905     16907
     16909     16908     16910     16912     16911     16913     16915     16914     16916
     16918     16917     16919     16921     16920     16922     16924     16923     16925
     16927     16926     16928     16930     16929     16931     16933     16932     16934
     16936     16935     16937     16939     16938     16940     16942     16941     16943
     16945     16944     16946     16948     16947     16949     16951     16950     16952
     16954     16953     16955     16957     16956     16958     16960     16959     16961
     16963     16962     16964     16966     16965     16967     16969     16968     16970
     16972     16971     16973     16975     16974     16976     16978     16977     16979
     16981     16980     16982     16984     16983     16985     16987     16986     16988
     16990     16989     16991     16993     16992     16994     16996     16995     16997
     16999     16998     17000     17002     17001     17003     17005     17004     17006
     17008     17007     17009     17011     17010     17012     17014     17013     17015
     17017     17016     17018     17020     17019     17021     17023     17022     17024
     17026     17025     17027     17029     17028     17030     17032     17031     17033
     17035     17034     17036     17038     17037     17039     17041     17040     17042
     17044     17043     17045     17047     17046     17048     17050     17049     17051
     17053     17052     17054     17056     17055     17057     17059     17058     17060
     17062     17061     17063     17065     17064     17066     17068     17067     17069
     17071     17070     17072     17074     17073     17075     17077     17076     17078
     17080     17079     17081     17083     17082     17084     17086     17085     17087
     17089     17088     17090     17092     17091     17093     17095     17094     17096
     17098     17097     17099     17101     17100     17102     17104     17103     17105
     17107     17106     17108     17110     17109     17111     17113     17112     17114
     17116     17115     17117     17119     17118     17120     17122     17121     17123
     17125     17124     17126     17128     17127     17129     17131     17130     17132
     17134     17133     17135     17137     17136     17138     17140     17139     17141
     17143     17142     17144     17146     17145     17147     17149     17148     17150
     17152     17151     17153     17155     17154     17156     17158     17157     17159
     17161     17160     17162     17164     17163     17165     17167     17166     17168
     17170     17169     17171     17173     17172     17174     17176     17175     17177
     17179     17178     17180     17182     17181     17183     17185     17184     17186
     17188     17187     17189     17191     17190     17192     17194     17193     17195
     17197     17196     17198     17200     17199     17201     17203     17202     17204
     17206     17205     17207     17209     17208     17210     17212     17211     17213
     17215     17214     17216     17218     17217     17219     17221     17220     17222
     17224     17223     17225     17227     17226     17228     17230     17229     17231
     17233     17232     17234     17236     17235     17237     17239     17238     17240
     17242     17241     17243     17245     17244     17246     17248     17247     17249
     17251     17250     17252     17254     17253     17255     17257     17256     17258
     17260     17259     17261     17263     17262     17264     17266     17265     17267
     17269     17268     17270     17272     17271     17273     17275     17274     17276
     17278     17277     17279     17281     17280     17282     17284     17283     17285
     17287     17286     17288     17290     17289     17291     17293     17292     17294
     17296     17295     17297     17299     17298     17300     17302     17301     17303
     17305     17304     17306     17308     17307     17309     17311     17310     17312
     17314     17313     17315     17317     17316     17318     17320     17319     17321
     17323     17322     17324     17326     17325     17327     17329     17328     17330
     17332     17331     17333     17335     17334     17336     17338     17337     17339
     17341     17340     17342     17344     17343     17345     17347     17346     17348
     17350     17349     17351     17353     17352     17354     17356     17355     17357
     17359     17358     17360     17362     17361     17363     17365     17364     17366
     17368     17367     17369     17371     17370     17372     17374     17373     17375
     17377     17376     17378     17380     17379     17381     17383     17382     17384
     17386     17385     17387     17389     17388     17390     17392     17391     17393
     17395     17394     17396     17398     17397     17399     17401     17400     17402
     17404     17403     17405     17407     17406     17408     17410     17409     17411
     17413     17412     17414     17416     17415     17417     17419     17418     17420
     17422     17421     17423     17425     17424     17426     17428     17427     17429
     17431     17430     17432     17434     17433     17435     17437     17436     17438
     17440     17439     17441     17443     17442     17444     17446     17445     17447
     17449     17448     17450     17452     17451     17453     17455     17454     17456
     17458     17457     17459     17461     17460     17462     17464     17463     17465
     17467     17466     17468     17470     17469     17471     17473     17472     17474
     17476     17475     17477     17479     17478     17480     17482     17481     17483
     17485     17484     17486     17488     17487     17489     17491     17490     17492
     17494     17493     17495     17497     17496     17498     17500     17499     17501
     17503     17502     17504     17506     17505     17507     17509     17508     17510
     17512     17511     17513     17515     17514     17516     17518     17517     17519
     17521     17520     17522     17524     17523     17525     17527     17526     17528
     17530     17529     17531     17533     17532     17534     17536     17535     17537
     17539     17538     17540     17542     17541     17543     17545     17544     17546
     17548     17547     17549     17551     17550     17552     17554     17553     17555
     17557     17556     17558     17560     17559     17561     17563     17562     17564
     17566     17565     17567     17569     17568     17570     17572     17571     17573
     17575     17574     17576     17578     17577     17579     17581     17580     17582
     17584     17583     17585     17587     17586     17588     17590     17589     17591
     17593     17592     17594     17596     17595     17597     17599     17598     17600
     17602     17601     17603     17605     17604     17606     17608     17607     17609
     17611     17610     17612     17614     17613     17615     17617     17616     17618
     17620     17619     17621     17623     17622     17624     17626     17625     17627
     17629     17628     17630     17632     17631     17633     17635     17634     17636
     17638     17637     17639     17641     17640     17642     17644     17643     17645
     17647     17646     17648     17650     17649     17651     17653     17652     17654
     17656     17655     17657     17659     17658     17660     17662     17661     17663
     17665     17664     17666     17668     17667     17669     17671     17670     17672
     17674     17673     17675     17677     17676     17678     17680     17679     17681
     17683     17682     17684     17686     17685     17687     17689     17688     17690
     17692     17691     17693     17695     17694     17696     17698     17697     17699
     17701     17700     17702     17704     17703     17705     17707     17706     17708
     17710     17709     17711     17713     17712     17714     17716     17715     17717
     17719     17718     17720     17722     17721     17723     17725     17724     17726
     17728     17727     17729     17731     17730     17732     17734     17733     17735
     17737     17736     17738     17740     17739     17741     17743     17742     17744
     17746     17745     17747     17749     17748     17750     17752     17751     17753
     17755     17754     17756     17758     17757     17759     17761     17760     17762
     17764     17763     17765     17767     17766     17768     17770     17769     17771
     17773     17772     17774     17776     17775     17777     17779     17778     17780
     17782     17781     17783     17785     17784     17786     17788     17787     17789
     17791     17790     17792     17794     17793     17795     17797     17796     17798
     17800     17799     17801     17803     17802     17804     17806     17805     17807
     17809     17808     17810     17812     17811     17813     17815     17814     17816
     17818     17817     17819     17821     17820     17822     17824     17823     17825
     17827     17826     17828     17830     17829     17831     17833     17832     17834
     17836     17835     17837     17839     17838     17840     17842     17841     17843
     17845     17844     17846     17848     17847     17849     17851     17850     17852
     17854     17853     17855     17857     17856     17858     17860     17859     17861
     17863     17862     17864     17866     17865     17867     17869     17868     17870
     17872     17871     17873     17875     17874     17876     17878     17877     17879
     17881     17880     17882     17884     17883     17885     17887     17886     17888
     17890     17889     17891     17893     17892     17894     17896     17895     17897
     17899     17898     17900     17902     17901     17903     17905     17904     17906
     17908     17907     17909     17911     17910     17912     17914     17913     17915
     17917     17916     17918     17920     17919     17921     17923     17922     17924
     17926     17925     17927     17929     17928     17930     17932     17931     17933
     17935     17934     17936     17938     17937     17939     17941     17940     17942
     17944     17943     17945     17947     17946     17948     17950     17949     17951
     17953     17952     17954     17956     17955     17957     17959     17958     17960
     17962     17961     17963     17965     17964     17966     17968     17967     17969
     17971     17970     17972     17974     17973     17975     17977     17976     17978
     17980     17979     17981     17983     17982     17984     17986     17985     17987
     17989     17988     17990     17992     17991     17993     17995     17994     17996
     17998     17997     17999     18001     18000     18002     18004     18003     18005
     18007     18006     18008     18010     18009     18011     18013     18012     18014
     18016     18015     18017     18019     18018     18020     18022     18021     18023
     18025     18024     18026     18028     18027     18029     18031     18030     18032
     18034     18033     18035     18037     18036     18038     18040     18039     18041
     18043     18042     18044     18046     18045     18047     18049     18048     18050
     18052     18051     18053     18055     18054     18056     18058     18057     18059
     18061     18060     18062     18064     18063     18065     18067     18066     18068
     18070     18069     18071     18073     18072     18074     18076     18075     18077
     18079     18078     18080     18082     18081     18083     18085     18084     18086
     18088     18087     18089     18091     18090     18092     18094     18093     18095
     18097     18096     18098     18100     18099     18101     18103     18102     18104
     18106     18105     18107     18109     18108     18110     18112     18111     18113
     18115     18114     18116     18118     18117     18119     18121     18120     18122
     18124     18123     18125     18127     18126     18128     18130     18129     18131
     18133     18132     18134     18136     18135     18137     18139     18138     18140
     18142     18141     18143     18145     18144     18146     18148     18147     18149
     18151     18150     18152     18154     18153     18155     18157     18156     18158
     18160     18159     18161     18163     18162     18164     18166     18165     18167
     18169     18168     18170     18172     18171     18173     18175     18174     18176
     18178     18177     18179     18181     18180     18182     18184     18183     18185
     18187     18186     18188     18190     18189     18191     18193     18192     18194
     18196     18195     18197     18199     18198     18200     18202     18201     18203
     18205     18204     18206     18208     18207     18209     18211     18210     18212
     18214     18213     18215     18217     18216     18218     18220     18219     18221
     18223     18222     18224     18226     18225     18227     18229     18228     18230
     18232     18231     18233     18235     18234     18236     18238     18237     18239
     18241     18240     18242     18244     18243     18245     18247     18246     18248
     18250     18249     18251     18253     18252     18254     18256     18255     18257
     18259     18258     18260     18262     18261     18263     18265     18264     18266
     18268     18267     18269     18271     18270     18272     18274     18273     18275
     18277     18276     18278     18280     18279     18281     18283     18282     18284
     18286     18285     18287     18289     18288     18290     18292     18291     18293
     18295     18294     18296     18298     18297     18299     18301     18300     18302
     18304     18303     18305     18307     18306     18308     18310     18309     18311
     18313     18312     18314     18316     18315     18317     18319     18318     18320
     18322     18321     18323     18325     18324     18326     18328     18327     18329
     18331     18330     18332     18334     18333     18335     18337     18336     18338
     18340     18339     18341     18343     18342     18344     18346     18345     18347
     18349     18348     18350     18352     18351     18353     18355     18354     18356
     18358     18357     18359     18361     18360     18362     18364     18363     18365
     18367     18366     18368     18370     18369     18371     18373     18372     18374
     18376     18375     18377     18379     18378     18380     18382     18381     18383
     18385     18384     18386     18388     18387     18389     18391     18390     18392
     18394     18393     18395     18397     18396     18398     18400     18399     18401
     18403     18402     18404     18406     18405     18407     18409     18408     18410
     18412     18411     18413     18415     18414     18416     18418     18417     18419
     18421     18420     18422     18424     18423     18425     18427     18426     18428
     18430     18429     18431     18433     18432     18434     18436     18435     18437
     18439     18438     18440     18442     18441     18443     18445     18444     18446
     18448     18447     18449     18451     18450     18452     18454     18453     18455
     18457     18456     18458     18460     18459     18461     18463     18462     18464
     18466     18465     18467     18469     18468     18470     18472     18471     18473
     18475     18474     18476     18478     18477     18479     18481     18480     18482
     18484     18483     18485     18487     18486     18488     18490     18489     18491
     18493     18492     18494     18496     18495     18497     18499     18498     18500
     18502     18501     18503     18505     18504     18506     18508     18507     18509
     18511     18510     18512     18514     18513     18515     18517     18516     18518
     18520     18519     18521     18523     18522     18524     18526     18525     18527
     18529     18528     18530     18532     18531     18533     18535     18534     18536
     18538     18537     18539     18541     18540     18542     18544     18543     18545
     18547     18546     18548     18550     18549     18551     18553     18552     18554
     18556     18555     18557     18559     18558     18560     18562     18561     18563
     18565     18564     18566     18568     18567     18569     18571     18570     18572
     18574     18573     18575     18577     18576     18578     18580     18579     18581
     18583     18582     18584     18586     18585     18587     18589     18588     18590
     18592     18591     18593     18595     18594     18596     18598     18597     18599
     18601     18600     18602     18604     18603     18605     18607     18606     18608
     18610     18609     18611     18613     18612     18614     18616     18615     18617
     18619     18618     18620     18622     18621     18623     18625     18624     18626
     18628     18627     18629     18631     18630     18632     18634     18633     18635
     18637     18636     18638     18640     18639     18641     18643     18642     18644
     18646     18645     18647     18649     18648     18650     18652     18651     18653
     18655     18654     18656     18658     18657     18659     18661     18660     18662
     18664     18663     18665     18667     18666     18668     18670     18669     18671
     18673     18672     18674     18676     18675     18677     18679     18678     18680
     18682     18681     18683     18685     18684     18686     18688     18687     18689
     18691     18690     18692     18694     18693     18695     18697     18696     18698
     18700     18699     18701     18703     18702     18704     18706     18705     18707
     18709     18708     18710     18712     18711     18713     18715     18714     18716
     18718     18717     18719     18721     18720     18722     18724     18723     18725
     18727     18726     18728     18730     18729     18731     18733     18732     18734
     18736     18735     18737     18739     18738     18740     18742     18741     18743
     18745     18744     18746     18748     18747     18749     18751     18750     18752
     18754     18753     18755     18757     18756     18758     18760     18759     18761
     18763     18762     18764     18766     18765     18767     18769     18768     18770
     18772     18771     18773     18775     18774     18776     18778     18777     18779
     18781     18780     18782     18784     18783     18785     18787     18786     18788
     18790     18789     18791     18793     18792     18794     18796     18795     18797
     18799     18798     18800     18802     18801     18803     18805     18804     18806
     18808     18807     18809     18811     18810     18812     18814     18813     18815
     18817     18816     18818     18820     18819     18821     18823     18822     18824
     18826     18825     18827     18829     18828     18830     18832     18831     18833
     18835     18834     18836     18838     18837     18839     18841     18840     18842
     18844     18843     18845     18847     18846     18848     18850     18849     18851
     18853     18852     18854     18856     18855     18857     18859     18858     18860
     18862     18861     18863     18865     18864     18866     18868     18867     18869
     18871     18870     18872     18874     18873     18875     18877     18876     18878
     18880     18879     18881     18883     18882     18884     18886     18885     18887
     18889     18888     18890     18892     18891     18893     18895     18894     18896
     18898     18897     18899     18901     18900     18902     18904     18903     18905
     18907     18906     18908     18910     18909     18911     18913     18912     18914
     18916     18915     18917     18919     18918     18920     18922     18921     18923
     18925     18924     18926     18928     18927     18929     18931     18930     18932
     18934     18933     18935     18937     18936     18938     18940     18939     18941
     18943     18942     18944     18946     18945     18947     18949     18948     18950
     18952     18951     18953     18955     18954     18956     18958     18957     18959
     18961     18960     18962     18964     18963     18965     18967     18966     18968
     18970     18969     18971     18973     18972     18974     18976     18975     18977
     18979     18978     18980     18982     18981     18983     18985     18984     18986
     18988     18987     18989     18991     18990     18992     18994     18993     18995
     18997     18996     18998     19000     18999     19001     19003     19002     19004
     19006     19005     19007     19009     19008     19010     19012     19011     19013
     19015     19014     19016     19018     19017     19019     19021     19020     19022
     19024     19023     19025     19027     19026     19028     19030     19029     19031
     19033     19032     19034     19036     19035     19037     19039     19038     19040
     19042     19041     19043     19045     19044     19046     19048     19047     19049
     19051     19050     19052     19054     19053     19055     19057     19056     19058
     19060     19059     19061     19063     19062     19064     19066     19065     19067
     19069     19068     19070     19072     19071     19073     19075     19074     19076
     19078     19077     19079     19081     19080     19082     19084     19083     19085
     19087     19086     19088     19090     19089     19091     19093     19092     19094
     19096     19095     19097     19099     19098     19100     19102     19101     19103
     19105     19104     19106     19108     19107     19109     19111     19110     19112
     19114     19113     19115     19117     19116     19118     19120     19119     19121
     19123     19122     19124     19126     19125     19127     19129     19128     19130
     19132     19131     19133     19135     19134     19136     19138     19137     19139
     19141     19140     19142     19144     19143     19145     19147     19146     19148
     19150     19149     19151     19153     19152     19154     19156     19155     19157
     19159     19158     19160     19162     19161     19163     19165     19164     19166
     19168     19167     19169     19171     19170     19172     19174     19173     19175
     19177     19176     19178     19180     19179     19181     19183     19182     19184
     19186     19185     19187     19189     19188     19190     19192     19191     19193
     19195     19194     19196     19198     19197     19199     19201     19200     19202
     19204     19203     19205     19207     19206     19208     19210     19209     19211
     19213     19212     19214     19216     19215     19217     19219     19218     19220
     19222     19221     19223     19225     19224     19226     19228     19227     19229
     19231     19230     19232     19234     19233     19235     19237     19236     19238
     19240     19239     19241     19243     19242     19244     19246     19245     19247
     19249     19248     19250     19252     19251     19253     19255     19254     19256
     19258     19257     19259     19261     19260     19262     19264     19263     19265
     19267     19266     19268     19270     19269     19271     19273     19272     19274
     19276     19275     19277     19279     19278     19280     19282     19281     19283
     19285     19284     19286     19288     19287     19289     19291     19290     19292
     19294     19293     19295     19297     19296     19298     19300     19299     19301
     19303     19302     19304     19306     19305     19307     19309     19308     19310
     19312     19311     19313     19315     19314     19316     19318     19317     19319
     19321     19320     19322     19324     19323     19325     19327     19326     19328
     19330     19329     19331     19333     19332     19334     19336     19335     19337
     19339     19338     19340     19342     19341     19343     19345     19344     19346
     19348     19347     19349     19351     19350     19352     19354     19353     19355
     19357     19356     19358     19360     19359     19361     19363     19362     19364
     19366     19365     19367     19369     19368     19370     19372     19371     19373
     19375     19374     19376     19378     19377     19379     19381     19380     19382
     19384     19383     19385     19387     19386     19388     19390     19389     19391
     19393     19392     19394     19396     19395     19397     19399     19398     19400
     19402     19401     19403     19405     19404     19406     19408     19407     19409
     19411     19410     19412     19414     19413     19415     19417     19416     19418
     19420     19419     19421     19423     19422     19424     19426     19425     19427
     19429     19428     19430     19432     19431     19433     19435     19434     19436
     19438     19437     19439     19441     19440     19442     19444     19443     19445
     19447     19446     19448     19450     19449     19451     19453     19452     19454
     19456     19455     19457     19459     19458     19460     19462     19461     19463
     19465     19464     19466     19468     19467     19469     19471     19470     19472
     19474     19473     19475     19477     19476     19478     19480     19479     19481
     19483     19482     19484     19486     19485     19487     19489     19488     19490
     19492     19491     19493     19495     19494     19496     19498     19497     19499
     19501     19500     19502     19504     19503     19505     19507     19506     19508
     19510     19509     19511     19513     19512     19514     19516     19515     19517
     19519     19518     19520     19522     19521     19523     19525     19524     19526
     19528     19527     19529     19531     19530     19532     19534     19533     19535
     19537     19536     19538     19540     19539     19541     19543     19542     19544
     19546     19545     19547     19549     19548     19550     19552     19551     19553
     19555     19554     19556     19558     19557     19559     19561     19560     19562
     19564     19563     19565     19567     19566     19568     19570     19569     19571
     19573     19572     19574     19576     19575     19577     19579     19578     19580
     19582     19581     19583     19585     19584     19586     19588     19587     19589
     19591     19590     19592     19594     19593     19595     19597     19596     19598
     19600     19599     19601     19603     19602     19604     19606     19605     19607
     19609     19608     19610     19612     19611     19613     19615     19614     19616
     19618     19617     19619     19621     19620     19622     19624     19623     19625
     19627     19626     19628     19630     19629     19631     19633     19632     19634
     19636     19635     19637     19639     19638     19640     19642     19641     19643
     19645     19644     19646     19648     19647     19649     19651     19650     19652
     19654     19653     19655     19657     19656     19658     19660     19659     19661
     19663     19662     19664     19666     19665     19667     19669     19668     19670
     19672     19671     19673     19675     19674     19676     19678     19677     19679
     19681     19680     19682     19684     19683     19685     19687     19686     19688
     19690     19689     19691     19693     19692     19694     19696     19695     19697
     19699     19698     19700     19702     19701     19703     19705     19704     19706
     19708     19707     19709     19711     19710     19712     19714     19713     19715
     19717     19716     19718     19720     19719     19721     19723     19722     19724
     19726     19725     19727     19729     19728     19730     19732     19731     19733
     19735     19734     19736     19738     19737     19739     19741     19740     19742
     19744     19743     19745     19747     19746     19748     19750     19749     19751
     19753     19752     19754     19756     19755     19757     19759     19758     19760
     19762     19761     19763     19765     19764     19766     19768     19767     19769
     19771     19770     19772     19774     19773     19775     19777     19776     19778
     19780     19779     19781     19783     19782     19784     19786     19785     19787
     19789     19788     19790     19792     19791     19793     19795     19794     19796
     19798     19797     19799     19801     19800     19802     19804     19803     19805
     19807     19806     19808     19810     19809     19811     19813     19812     19814
     19816     19815     19817     19819     19818     19820     19822     19821     19823
     19825     19824     19826     19828     19827     19829     19831     19830     19832
     19834     19833     19835     19837     19836     19838     19840     19839     19841
     19843     19842     19844     19846     19845     19847     19849     19848     19850
     19852     19851     19853     19855     19854     19856     19858     19857     19859
     19861     19860     19862     19864     19863     19865     19867     19866     19868
     19870     19869     19871     19873     19872     19874     19876     19875     19877
     19879     19878     19880     19882     19881     19883     19885     19884     19886
     19888     19887     19889     19891     19890     19892     19894     19893     19895
     19897     19896     19898     19900     19899     19901     19903     19902     19904
     19906     19905     19907     19909     19908     19910     19912     19911     19913
     19915     19914     19916     19918     19917     19919     19921     19920     19922
     19924     19923     19925     19927     19926     19928     19930     19929     19931
     19933     19932     19934     19936     19935     19937     19939     19938     19940
     19942     19941     19943     19945     19944     19946     19948     19947     19949
     19951     19950     19952     19954     19953     19955     19957     19956     19958
     19960     19959     19961     19963     19962     19964     19966     19965     19967
     19969     19968     19970     19972     19971     19973     19975     19974     19976
     19978     19977     19979     19981     19980     19982     19984     19983     19985
     19987     19986     19988     19990     19989     19991     19993     19992     19994
     19996     19995     19997     19999     19998     20000     20002     20001     20003
     20005     20004     20006     20008     20007     20009     20011     20010     20012
     20014     20013     20015     20017     20016     20018     20020     20019     20021
     20023     20022     20024     20026     20025     20027     20029     20028     20030
     20032     20031     20033     20035     20034     20036     20038     20037     20039
     20041     20040     20042     20044     20043     20045     20047     20046     20048
     20050     20049     20051     20053     20052     20054     20056     20055     20057
     20059     20058     20060     20062     20061     20063     20065     20064     20066
     20068     20067     20069     20071     20070     20072     20074     20073     20075
     20077     20076     20078     20080     20079     20081     20083     20082     20084
     20086     20085     20087     20089     20088     20090     20092     20091     20093
     20095     20094     20096     20098     20097     20099     20101     20100     20102
     20104     20103     20105     20107     20106     20108     20110     20109     20111
     20113     20112     20114     20116     20115     20117     20119     20118     20120
     20122     20121     20123     20125     20124     20126     20128     20127     20129
     20131     20130     20132     20134     20133     20135     20137     20136     20138
     20140     20139     20141     20143     20142     20144     20146     20145     20147
     20149     20148     20150     20152     20151     20153     20155     20154     20156
     20158     20157     20159     20161     20160     20162     20164     20163     20165
     20167     20166     20168     20170     20169     20171     20173     20172     20174
     20176     20175     20177     20179     20178     20180     20182     20181     20183
     20185     20184     20186     20188     20187     20189     20191     20190     20192
     20194     20193     20195     20197     20196     20198     20200     20199     20201
     20203     20202     20204     20206     20205     20207     20209     20208     20210
     20212     20211     20213     20215     20214     20216     20218     20217     20219
     20221     20220     20222     20224     20223     20225     20227     20226     20228
     20230     20229     20231     20233     20232     20234     20236     20235     20237
     20239     20238     20240     20242     20241     20243     20245     20244     20246
     20248     20247     20249     20251     20250     20252     20254     20253     20255
     20257     20256     20258     20260     20259     20261     20263     20262     20264
     20266     20265     20267     20269     20268     20270     20272     20271     20273
     20275     20274     20276     20278     20277     20279     20281     20280     20282
     20284     20283     20285     20287     20286     20288     20290     20289     20291
     20293     20292     20294     20296     20295     20297     20299     20298     20300
     20302     20301     20303     20305     20304     20306     20308     20307     20309
     20311     20310     20312     20314     20313     20315     20317     20316     20318
     20320     20319     20321     20323     20322     20324     20326     20325     20327
     20329     20328     20330     20332     20331     20333     20335     20334     20336
     20338     20337     20339     20341     20340     20342     20344     20343     20345
     20347     20346     20348     20350     20349     20351     20353     20352     20354
     20356     20355     20357     20359     20358     20360     20362     20361     20363
     20365     20364     20366     20368     20367     20369     20371     20370     20372
     20374     20373     20375     20377     20376     20378     20380     20379     20381
     20383     20382     20384     20386     20385     20387     20389     20388     20390
     20392     20391     20393     20395     20394     20396     20398     20397     20399
     20401     20400     20402     20404     20403     20405     20407     20406     20408
     20410     20409     20411     20413     20412     20414     20416     20415     20417
     20419     20418     20420     20422     20421     20423     20425     20424     20426
     20428     20427     20429     20431     20430     20432     20434     20433     20435
     20437     20436     20438     20440     20439     20441     20443     20442     20444
     20446     20445     20447     20449     20448     20450     20452     20451     20453
     20455     20454     20456     20458     20457     20459     20461     20460     20462
     20464     20463     20465     20467     20466     20468     20470     20469     20471
     20473     20472     20474     20476     20475     20477     20479     20478     20480
     20482     20481     20483     20485     20484     20486     20488     20487     20489
     20491     20490     20492     20494     20493     20495     20497     20496     20498
     20500     20499     20501     20503     20502     20504     20506     20505     20507
     20509     20508     20510     20512     20511     20513     20515     20514     20516
     20518     20517     20519     20521     20520     20522     20524     20523     20525
     20527     20526     20528     20530     20529     20531     20533     20532     20534
     20536     20535     20537     20539     20538     20540     20542     20541     20543
     20545     20544     20546     20548     20547     20549     20551     20550     20552
     20554     20553     20555     20557     20556     20558     20560     20559     20561
     20563     20562     20564     20566     20565     20567     20569     20568     20570
     20572     20571     20573     20575     20574     20576     20578     20577     20579
     20581     20580     20582     20584     20583     20585     20587     20586     20588
     20590     20589     20591     20593     20592     20594     20596     20595     20597
     20599     20598     20600     20602     20601     20603     20605     20604     20606
     20608     20607     20609     20611     20610     20612     20614     20613     20615
     20617     20616     20618     20620     20619     20621     20623     20622     20624
     20626     20625     20627     20629     20628     20630     20632     20631     20633
     20635     20634     20636     20638     20637     20639     20641     20640     20642
     20644     20643     20645     20647     20646     20648     20650     20649     20651
     20653     20652     20654     20656     20655     20657     20659     20658     20660
     20662     20661     20663     20665     20664     20666     20668     20667     20669
     20671     20670     20672     20674     20673     20675     20677     20676     20678
     20680     20679     20681     20683     20682     20684     20686     20685     20687
     20689     20688     20690     20692     20691     20693     20695     20694     20696
     20698     20697     20699     20701     20700     20702     20704     20703     20705
     20707     20706     20708     20710     20709     20711     20713     20712     20714
     20716     20715     20717     20719     20718     20720     20722     20721     20723
     20725     20724     20726     20728     20727     20729     20731     20730     20732
     20734     20733     20735     20737     20736     20738     20740     20739     20741
     20743     20742     20744     20746     20745     20747     20749     20748     20750
     20752     20751     20753     20755     20754     20756     20758     20757     20759
     20761     20760     20762     20764     20763     20765     20767     20766     20768
     20770     20769     20771     20773     20772     20774     20776     20775     20777
     20779     20778     20780     20782     20781     20783     20785     20784     20786
     20788     20787     20789     20791     20790     20792     20794     20793     20795
     20797     20796     20798     20800     20799     20801     20803     20802     20804
     20806     20805     20807     20809     20808     20810     20812     20811     20813
     20815     20814     20816     20818     20817     20819     20821     20820     20822
     20824     20823     20825     20827     20826     20828     20830     20829     20831
     20833     20832     20834     20836     20835     20837     20839     20838     20840
     20842     20841     20843     20845     20844     20846     20848     20847     20849
     20851     20850     20852     20854     20853     20855     20857     20856     20858
     20860     20859     20861     20863     20862     20864     20866     20865     20867
     20869     20868     20870     20872     20871     20873     20875     20874     20876
     20878     20877     20879     20881     20880     20882     20884     20883     20885
     20887     20886     20888     20890     20889     20891     20893     20892     20894
     20896     20895     20897     20899     20898     20900     20902     20901     20903
     20905     20904     20906     20908     20907     20909     20911     20910     20912
     20914     20913     20915     20917     20916     20918     20920     20919     20921
     20923     20922     20924     20926     20925     20927     20929     20928     20930
     20932     20931     20933     20935     20934     20936     20938     20937     20939
     20941     20940     20942     20944     20943     20945     20947     20946     20948
     20950     20949     20951     20953     20952     20954     20956     20955     20957
     20959     20958     20960     20962     20961     20963     20965     20964     20966
     20968     20967     20969     20971     20970     20972     20974     20973     20975
     20977     20976     20978     20980     20979     20981     20983     20982     20984
     20986     20985     20987     20989     20988     20990     20992     20991     20993
     20995     20994     20996     20998     20997     20999     21001     21000     21002
     21004     21003     21005     21007     21006     21008     21010     21009     21011
     21013     21012     21014     21016     21015     21017     21019     21018     21020
     21022     21021     21023     21025     21024     21026     21028     21027     21029
     21031     21030     21032     21034     21033     21035     21037     21036     21038
     21040     21039     21041     21043     21042     21044     21046     21045     21047
     21049     21048     21050     21052     21051     21053     21055     21054     21056
     21058     21057     21059     21061     21060     21062     21064     21063     21065
     21067     21066     21068     21070     21069     21071     21073     21072     21074
     21076     21075     21077     21079     21078     21080     21082     21081     21083
     21085     21084     21086     21088     21087     21089     21091     21090     21092
     21094     21093     21095     21097     21096     21098     21100     21099     21101
     21103     21102     21104     21106     21105     21107     21109     21108     21110
     21112     21111     21113     21115     21114     21116     21118     21117     21119
     21121     21120     21122     21124     21123     21125     21127     21126     21128
     21130     21129     21131     21133     21132     21134     21136     21135     21137
     21139     21138     21140     21142     21141     21143     21145     21144     21146
     21148     21147     21149     21151     21150     21152     21154     21153     21155
     21157     21156     21158     21160     21159     21161     21163     21162     21164
     21166     21165     21167     21169     21168     21170     21172     21171     21173
     21175     21174     21176     21178     21177     21179     21181     21180     21182
     21184     21183     21185     21187     21186     21188     21190     21189     21191
     21193     21192     21194     21196     21195     21197     21199     21198     21200
     21202     21201     21203     21205     21204     21206     21208     21207     21209
     21211     21210     21212     21214     21213     21215     21217     21216     21218
     21220     21219     21221     21223     21222     21224     21226     21225     21227
     21229     21228     21230     21232     21231     21233     21235     21234     21236
     21238     21237     21239     21241     21240     21242     21244     21243     21245
     21247     21246     21248     21250     21249     21251     21253     21252     21254
     21256     21255     21257     21259     21258     21260     21262     21261     21263
     21265     21264     21266     21268     21267     21269     21271     21270     21272
     21274     21273     21275     21277     21276     21278     21280     21279     21281
     21283     21282     21284     21286     21285     21287     21289     21288     21290
     21292     21291     21293     21295     21294     21296     21298     21297     21299
     21301     21300     21302     21304     21303     21305     21307     21306     21308
     21310     21309     21311     21313     21312     21314     21316     21315     21317
     21319     21318     21320     21322     21321     21323     21325     21324     21326
     21328     21327     21329     21331     21330     21332     21334     21333     21335
     21337     21336     21338     21340     21339     21341     21343     21342     21344
     21346     21345     21347     21349     21348     21350     21352     21351     21353
     21355     21354     21356     21358     21357     21359     21361     21360     21362
     21364     21363     21365     21367     21366     21368     21370     21369     21371
     21373     21372     21374     21376     21375     21377     21379     21378     21380
     21382     21381     21383     21385     21384     21386     21388     21387     21389
     21391     21390     21392     21394     21393     21395     21397     21396     21398
     21400     21399     21401     21403     21402     21404     21406     21405     21407
     21409     21408     21410     21412     21411     21413     21415     21414     21416
     21418     21417     21419     21421     21420     21422     21424     21423     21425
     21427     21426     21428     21430     21429     21431     21433     21432     21434
     21436     21435     21437     21439     21438     21440     21442     21441     21443
     21445     21444     21446     21448     21447     21449     21451     21450     21452
     21454     21453     21455     21457     21456     21458     21460     21459     21461
     21463     21462     21464     21466     21465     21467     21469     21468     21470
     21472     21471     21473     21475     21474     21476     21478     21477     21479
     21481     21480     21482     21484     21483     21485     21487     21486     21488
     21490     21489     21491     21493     21492     21494     21496     21495     21497
     21499     21498     21500     21502     21501     21503     21505     21504     21506
     21508     21507     21509     21511     21510     21512     21514     21513     21515
     21517     21516     21518     21520     21519     21521     21523     21522     21524
     21526     21525     21527     21529     21528     21530     21532     21531     21533
     21535     21534     21536     21538     21537     21539     21541     21540     21542
     21544     21543     21545     21547     21546     21548     21550     21549     21551
     21553     21552     21554     21556     21555     21557     21559     21558     21560
     21562     21561     21563     21565     21564     21566     21568     21567     21569
     21571     21570     21572     21574     21573     21575     21577     21576     21578
     21580     21579     21581     21583     21582     21584     21586     21585     21587
     21589     21588     21590     21592     21591     21593     21595     21594     21596
     21598     21597     21599     21601     21600     21602     21604     21603     21605
     21607     21606     21608     21610     21609     21611     21613     21612     21614
     21616     21615     21617     21619     21618     21620     21622     21621     21623
     21625     21624     21626     21628     21627     21629     21631     21630     21632
     21634     21633     21635     21637     21636     21638     21640     21639     21641
     21643     21642     21644     21646     21645     21647     21649     21648     21650
     21652     21651     21653     21655     21654     21656     21658     21657     21659
     21661     21660     21662     21664     21663     21665     21667     21666     21668
     21670     21669     21671     21673     21672     21674     21676     21675     21677
     21679     21678     21680     21682     21681     21683     21685     21684     21686
     21688     21687     21689     21691     21690     21692     21694     21693     21695
     21697     21696     21698     21700     21699     21701     21703     21702     21704
     21706     21705     21707     21709     21708     21710     21712     21711     21713
     21715     21714     21716     21718     21717     21719     21721     21720     21722
     21724     21723     21725     21727     21726     21728     21730     21729     21731
     21733     21732     21734     21736     21735     21737     21739     21738     21740
     21742     21741     21743     21745     21744     21746     21748     21747     21749
     21751     21750     21752     21754     21753     21755     21757     21756     21758
     21760     21759     21761     21763     21762     21764     21766     21765     21767
     21769     21768     21770     21772     21771     21773     21775     21774     21776
     21778     21777     21779     21781     21780     21782     21784     21783     21785
     21787     21786     21788     21790     21789     21791     21793     21792     21794
     21796     21795     21797     21799     21798     21800     21802     21801     21803
     21805     21804     21806     21808     21807     21809     21811     21810     21812
     21814     21813     21815     21817     21816     21818     21820     21819     21821
     21823     21822     21824     21826     21825     21827     21829     21828     21830
     21832     21831     21833     21835     21834     21836     21838     21837     21839
     21841     21840     21842     21844     21843     21845     21847     21846     21848
     21850     21849     21851     21853     21852     21854     21856     21855     21857
     21859     21858     21860     21862     21861     21863     21865     21864     21866
     21868     21867     21869     21871     21870     21872     21874     21873     21875
     21877     21876     21878     21880     21879     21881     21883     21882     21884
     21886     21885     21887     21889     21888     21890     21892     21891     21893
     21895     21894     21896     21898     21897     21899     21901     21900     21902
     21904     21903     21905     21907     21906     21908     21910     21909     21911
     21913     21912     21914     21916     21915     21917     21919     21918     21920
     21922     21921     21923     21925     21924     21926     21928     21927     21929
     21931     21930     21932     21934     21933     21935     21937     21936     21938
     21940     21939     21941     21943     21942     21944     21946     21945     21947
     21949     21948     21950     21952     21951     21953     21955     21954     21956
     21958     21957     21959     21961     21960     21962     21964     21963     21965
     21967     21966     21968     21970     21969     21971     21973     21972     21974
     21976     21975     21977     21979     21978     21980     21982     21981     21983
     21985     21984     21986     21988     21987     21989     21991     21990     21992
     21994     21993     21995     21997     21996     21998     22000     21999     22001
     22003     22002     22004     22006     22005     22007     22009     22008     22010
     22012     22011     22013     22015     22014     22016     22018     22017     22019
     22021     22020     22022     22024     22023     22025     22027     22026     22028
     22030     22029     22031     22033     22032     22034     22036     22035     22037
     22039     22038     22040     22042     22041     22043     22045     22044     22046
     22048     22047     22049     22051     22050     22052     22054     22053     22055
     22057     22056     22058     22060     22059     22061     22063     22062     22064
     22066     22065     22067     22069     22068     22070     22072     22071     22073
     22075     22074     22076     22078     22077     22079     22081     22080     22082
     22084     22083     22085     22087     22086     22088     22090     22089     22091
     22093     22092     22094     22096     22095     22097     22099     22098     22100
     22102     22101     22103     22105     22104     22106     22108     22107     22109
     22111     22110     22112     22114     22113     22115     22117     22116     22118
     22120     22119     22121     22123     22122     22124     22126     22125     22127
     22129     22128     22130     22132     22131     22133     22135     22134     22136
     22138     22137     22139     22141     22140     22142     22144     22143     22145
     22147     22146     22148     22150     22149     22151     22153     22152     22154
     22156     22155     22157     22159     22158     22160     22162     22161     22163
     22165     22164     22166     22168     22167     22169     22171     22170     22172
     22174     22173     22175     22177     22176     22178     22180     22179     22181
     22183     22182     22184     22186     22185     22187     22189     22188     22190
     22192     22191     22193     22195     22194     22196     22198     22197     22199
     22201     22200     22202     22204     22203     22205     22207     22206     22208
     22210     22209     22211     22213     22212     22214     22216     22215     22217
     22219     22218     22220     22222     22221     22223     22225     22224     22226
     22228     22227     22229     22231     22230     22232     22234     22233     22235
     22237     22236     22238     22240     22239     22241     22243     22242     22244
     22246     22245     22247     22249     22248     22250     22252     22251     22253
     22255     22254     22256     22258     22257     22259     22261     22260     22262
     22264     22263     22265     22267     22266     22268     22270     22269     22271
     22273     22272     22274     22276     22275     22277     22279     22278     22280
     22282     22281     22283     22285     22284     22286     22288     22287     22289
     22291     22290     22292     22294     22293     22295     22297     22296     22298
     22300     22299     22301     22303     22302     22304     22306     22305     22307
     22309     22308     22310     22312     22311     22313     22315     22314     22316
     22318     22317     22319     22321     22320     22322     22324     22323     22325
     22327     22326     22328     22330     22329     22331     22333     22332     22334
     22336     22335     22337     22339     22338     22340     22342     22341     22343
     22345     22344     22346     22348     22347     22349     22351     22350     22352
     22354     22353     22355     22357     22356     22358     22360     22359     22361
     22363     22362     22364     22366     22365     22367     22369     22368     22370
     22372     22371     22373     22375     22374     22376     22378     22377     22379
     22381     22380     22382     22384     22383     22385     22387     22386     22388
     22390     22389     22391     22393     22392     22394     22396     22395     22397
     22399     22398     22400     22402     22401     22403     22405     22404     22406
     22408     22407     22409     22411     22410     22412     22414     22413     22415
     22417     22416     22418     22420     22419     22421     22423     22422     22424
     22426     22425     22427     22429     22428     22430     22432     22431     22433
     22435     22434     22436     22438     22437     22439     22441     22440     22442
     22444     22443     22445     22447     22446     22448     22450     22449     22451
     22453     22452     22454     22456     22455     22457     22459     22458     22460
     22462     22461     22463     22465     22464     22466     22468     22467     22469
     22471     22470     22472     22474     22473     22475     22477     22476     22478
     22480     22479     22481     22483     22482     22484     22486     22485     22487
     22489     22488     22490     22492     22491     22493     22495     22494     22496
     22498     22497     22499     22501     22500     22502     22504     22503     22505
     22507     22506     22508     22510     22509     22511     22513     22512     22514
     22516     22515     22517     22519     22518     22520     22522     22521     22523
     22525     22524     22526     22528     22527     22529     22531     22530     22532
     22534     22533     22535     22537     22536     22538     22540     22539     22541
     22543     22542     22544     22546     22545     22547     22549     22548     22550
     22552     22551     22553     22555     22554     22556     22558     22557     22559
     22561     22560     22562     22564     22563     22565     22567     22566     22568
     22570     22569     22571     22573     22572     22574     22576     22575     22577
     22579     22578     22580     22582     22581     22583     22585     22584     22586
     22588     22587     22589     22591     22590     22592     22594     22593     22595
     22597     22596     22598     22600     22599     22601     22603     22602     22604
     22606     22605     22607     22609     22608     22610     22612     22611     22613
     22615     22614     22616     22618     22617     22619     22621     22620     22622
     22624     22623     22625     22627     22626     22628     22630     22629     22631
     22633     22632     22634     22636     22635     22637     22639     22638     22640
     22642     22641     22643     22645     22644     22646     22648     22647     22649
     22651     22650     22652     22654     22653     22655     22657     22656     22658
     22660     22659     22661     22663     22662     22664     22666     22665     22667
     22669     22668     22670     22672     22671     22673     22675     22674     22676
     22678     22677     22679     22681     22680     22682     22684     22683     22685
     22687     22686     22688     22690     22689     22691     22693     22692     22694
     22696     22695     22697     22699     22698     22700     22702     22701     22703
     22705     22704     22706     22708     22707     22709     22711     22710     22712
     22714     22713     22715     22717     22716     22718     22720     22719     22721
     22723     22722     22724     22726     22725     22727     22729     22728     22730
     22732     22731     22733     22735     22734     22736     22738     22737     22739
     22741     22740     22742     22744     22743     22745     22747     22746     22748
     22750     22749     22751     22753     22752     22754     22756     22755     22757
     22759     22758     22760     22762     22761     22763     22765     22764     22766
     22768     22767     22769     22771     22770     22772     22774     22773     22775
     22777     22776     22778     22780     22779     22781     22783     22782     22784
     22786     22785     22787     22789     22788     22790     22792     22791     22793
     22795     22794     22796     22798     22797     22799     22801     22800     22802
     22804     22803     22805     22807     22806     22808     22810     22809     22811
     22813     22812     22814     22816     22815     22817     22819     22818     22820
     22822     22821     22823     22825     22824     22826     22828     22827     22829
     22831     22830     22832     22834     22833     22835     22837     22836     22838
     22840     22839     22841     22843     22842     22844     22846     22845     22847
     22849     22848     22850     22852     22851     22853     22855     22854     22856
     22858     22857     22859     22861     22860     22862     22864     22863     22865
     22867     22866     22868     22870     22869     22871     22873     22872     22874
     22876     22875     22877     22879     22878     22880     22882     22881     22883
     22885     22884     22886     22888     22887     22889     22891     22890     22892
     22894     22893     22895     22897     22896     22898     22900     22899     22901
     22903     22902     22904     22906     22905     22907     22909     22908     22910
     22912     22911     22913     22915     22914     22916     22918     22917     22919
     22921     22920     22922     22924     22923     22925     22927     22926     22928
     22930     22929     22931     22933     22932     22934     22936     22935     22937
     22939     22938     22940     22942     22941     22943     22945     22944     22946
     22948     22947     22949     22951     22950     22952     22954     22953     22955
     22957     22956     22958     22960     22959     22961     22963     22962     22964
     22966     22965     22967     22969     22968     22970     22972     22971     22973
     22975     22974     22976     22978     22977     22979     22981     22980     22982
     22984     22983     22985     22987     22986     22988     22990     22989     22991
     22993     22992     22994     22996     22995     22997     22999     22998     23000
     23002     23001     23003     23005     23004     23006     23008     23007     23009
     23011     23010     23012     23014     23013     23015     23017     23016     23018
     23020     23019     23021     23023     23022     23024     23026     23025     23027
     23029     23028     23030     23032     23031     23033     23035     23034     23036
     23038     23037     23039     23041     23040     23042     23044     23043     23045
     23047     23046     23048     23050     23049     23051     23053     23052     23054
     23056     23055     23057     23059     23058     23060     23062     23061     23063
     23065     23064     23066     23068     23067     23069     23071     23070     23072
     23074     23073     23075     23077     23076     23078     23080     23079     23081
     23083     23082     23084     23086     23085     23087     23089     23088     23090
     23092     23091     23093     23095     23094     23096     23098     23097     23099
     23101     23100     23102     23104     23103     23105     23107     23106     23108
     23110     23109     23111     23113     23112     23114     23116     23115     23117
     23119     23118     23120     23122     23121     23123     23125     23124     23126
     23128     23127     23129     23131     23130     23132     23134     23133     23135
     23137     23136     23138     23140     23139     23141     23143     23142     23144
     23146     23145     23147     23149     23148     23150     23152     23151     23153
     23155     23154     23156     23158     23157     23159     23161     23160     23162
     23164     23163     23165     23167     23166     23168     23170     23169     23171
     23173     23172     23174     23176     23175     23177     23179     23178     23180
     23182     23181     23183     23185     23184     23186     23188     23187     23189
     23191     23190     23192     23194     23193     23195     23197     23196     23198
     23200     23199     23201     23203     23202     23204     23206     23205     23207
     23209     23208     23210     23212     23211     23213     23215     23214     23216
     23218     23217     23219     23221     23220     23222     23224     23223     23225
     23227     23226     23228     23230     23229     23231     23233     23232     23234
     23236     23235     23237     23239     23238     23240     23242     23241     23243
     23245     23244     23246     23248     23247     23249     23251     23250     23252
     23254     23253     23255     23257     23256     23258     23260     23259     23261
     23263     23262     23264     23266     23265     23267     23269     23268     23270
     23272     23271     23273     23275     23274     23276     23278     23277     23279
     23281     23280     23282     23284     23283     23285     23287     23286     23288
     23290     23289     23291     23293     23292     23294     23296     23295     23297
     23299     23298     23300     23302     23301     23303     23305     23304     23306
     23308     23307     23309     23311     23310     23312     23314     23313     23315
     23317     23316     23318     23320     23319     23321     23323     23322     23324
     23326     23325     23327     23329     23328     23330     23332     23331     23333
     23335     23334     23336     23338     23337     23339     23341     23340     23342
     23344     23343     23345     23347     23346     23348     23350     23349     23351
     23353     23352     23354     23356     23355     23357     23359     23358     23360
     23362     23361     23363     23365     23364     23366     23368     23367     23369
     23371     23370     23372     23374     23373     23375     23377     23376     23378
     23380     23379     23381     23383     23382     23384     23386     23385     23387
     23389     23388     23390     23392     23391     23393     23395     23394     23396
     23398     23397     23399     23401     23400     23402     23404     23403     23405
     23407     23406     23408     23410     23409     23411     23413     23412     23414
     23416     23415     23417     23419     23418     23420     23422     23421     23423
     23425     23424     23426     23428     23427     23429     23431     23430     23432
     23434     23433     23435     23437     23436     23438     23440     23439     23441
     23443     23442     23444     23446     23445     23447     23449     23448     23450
     23452     23451     23453     23455     23454     23456     23458     23457     23459
     23461     23460     23462     23464     23463     23465     23467     23466     23468
     23470     23469     23471     23473     23472     23474     23476     23475     23477
     23479     23478     23480     23482     23481     23483     23485     23484     23486
     23488     23487     23489     23491     23490     23492     23494     23493     23495
     23497     23496     23498     23500     23499     23501     23503     23502     23504
     23506     23505     23507     23509     23508     23510     23512     23511     23513
     23515     23514     23516     23518     23517     23519     23521     23520     23522
     23524     23523     23525     23527     23526     23528     23530     23529     23531
     23533     23532     23534     23536     23535     23537     23539     23538     23540
     23542     23541     23543     23545     23544     23546     23548     23547     23549
     23551     23550     23552     23554     23553     23555     23557     23556     23558
     23560     23559     23561     23563     23562     23564     23566     23565     23567
     23569     23568     23570     23572     23571     23573     23575     23574     23576
     23578     23577     23579     23581     23580     23582     23584     23583     23585
     23587     23586     23588     23590     23589     23591     23593     23592     23594
     23596     23595     23597     23599     23598     23600     23602     23601     23603
     23605     23604     23606     23608     23607     23609     23611     23610     23612
     23614     23613     23615     23617     23616     23618     23620     23619     23621
     23623     23622     23624     23626     23625     23627     23629     23628     23630
     23632     23631     23633     23635     23634     23636     23638     23637     23639
     23641     23640     23642     23644     23643     23645     23647     23646     23648
     23650     23649     23651     23653     23652     23654     23656     23655     23657
     23659     23658     23660     23662     23661     23663     23665     23664     23666
     23668     23667     23669     23671     23670     23672     23674     23673     23675
     23677     23676     23678     23680     23679     23681     23683     23682     23684
     23686     23685     23687     23689     23688     23690     23692     23691     23693
     23695     23694     23696     23698     23697     23699     23701     23700     23702
     23704     23703     23705     23707     23706     23708     23710     23709     23711
     23713     23712     23714     23716     23715     23717     23719     23718     23720
     23722     23721     23723     23725     23724     23726     23728     23727     23729
     23731     23730     23732     23734     23733     23735     23737     23736     23738
     23740     23739     23741     23743     23742     23744     23746     23745     23747
     23749     23748     23750     23752     23751     23753     23755     23754     23756
     23758     23757     23759     23761     23760     23762     23764     23763     23765
     23767     23766     23768     23770     23769     23771     23773     23772     23774
     23776     23775     23777     23779     23778     23780     23782     23781     23783
     23785     23784     23786     23788     23787     23789     23791     23790     23792
     23794     23793     23795     23797     23796     23798     23800     23799     23801
     23803     23802     23804     23806     23805     23807     23809     23808     23810
     23812     23811     23813     23815     23814     23816     23818     23817     23819
     23821     23820     23822     23824     23823     23825     23827     23826     23828
     23830     23829     23831     23833     23832     23834     23836     23835     23837
     23839     23838     23840     23842     23841     23843     23845     23844     23846
     23848     23847     23849     23851     23850     23852     23854     23853     23855
     23857     23856     23858     23860     23859     23861     23863     23862     23864
     23866     23865     23867     23869     23868     23870     23872     23871     23873
     23875     23874     23876     23878     23877     23879     23881     23880     23882
     23884     23883     23885     23887     23886     23888     23890     23889     23891
     23893     23892     23894     23896     23895     23897     23899     23898     23900
     23902     23901     23903     23905     23904     23906     23908     23907     23909
     23911     23910     23912     23914     23913     23915     23917     23916     23918
     23920     23919     23921     23923     23922     23924     23926     23925     23927
     23929     23928     23930     23932     23931     23933     23935     23934     23936
     23938     23937     23939     23941     23940     23942     23944     23943     23945
     23947     23946     23948     23950     23949     23951     23953     23952     23954
     23956     23955     23957     23959     23958     23960     23962     23961     23963
     23965     23964     23966     23968     23967     23969     23971     23970     23972
     23974     23973     23975     23977     23976     23978     23980     23979     23981
     23983     23982     23984     23986     23985     23987     23989     23988     23990
     23992     23991     23993     23995     23994     23996     23998     23997     23999
     24001     24000     24002     24004     24003     24005     24007     24006     24008
     24010     24009     24011     24013     24012     24014     24016     24015     24017
     24019     24018     24020     24022     24021     24023     24025     24024     24026
     24028     24027     24029     24031     24030     24032     24034     24033     24035
     24037     24036     24038     24040     24039     24041     24043     24042     24044
     24046     24045     24047     24049     24048     24050     24052     24051     24053
     24055     24054     24056     24058     24057     24059     24061     24060     24062
     24064     24063     24065     24067     24066     24068     24070     24069     24071
     24073     24072     24074     24076     24075     24077     24079     24078     24080
     24082     24081     24083     24085     24084     24086     24088     24087     24089
     24091     24090     24092     24094     24093     24095     24097     24096     24098
     24100     24099     24101     24103     24102     24104     24106     24105     24107
     24109     24108     24110     24112     24111     24113     24115     24114     24116
     24118     24117     24119     24121     24120     24122     24124     24123     24125
     24127     24126     24128     24130     24129     24131     24133     24132     24134
     24136     24135     24137     24139     24138     24140     24142     24141     24143
     24145     24144     24146     24148     24147     24149     24151     24150     24152
     24154     24153     24155     24157     24156     24158     24160     24159     24161
     24163     24162     24164     24166     24165     24167     24169     24168     24170
     24172     24171     24173     24175     24174     24176     24178     24177     24179
     24181     24180     24182     24184     24183     24185     24187     24186     24188
     24190     24189     24191     24193     24192     24194     24196     24195     24197
     24199     24198     24200     24202     24201     24203     24205     24204     24206
     24208     24207     24209     24211     24210     24212     24214     24213     24215
     24217     24216     24218     24220     24219     24221     24223     24222     24224
     24226     24225     24227     24229     24228     24230     24232     24231     24233
     24235     24234     24236     24238     24237     24239     24241     24240     24242
     24244     24243     24245     24247     24246     24248     24250     24249     24251
     24253     24252     24254     24256     24255     24257     24259     24258     24260
     24262     24261     24263     24265     24264     24266     24268     24267     24269
     24271     24270     24272     24274     24273     24275     24277     24276     24278
     24280     24279     24281     24283     24282     24284     24286     24285     24287
     24289     24288     24290     24292     24291     24293     24295     24294     24296
     24298     24297     24299     24301     24300     24302     24304     24303     24305
     24307     24306     24308     24310     24309     24311     24313     24312     24314
     24316     24315     24317     24319     24318     24320     24322     24321     24323
     24325     24324     24326     24328     24327     24329     24331     24330     24332
     24334     24333     24335     24337     24336     24338     24340     24339     24341
     24343     24342     24344     24346     24345     24347     24349     24348     24350
     24352     24351     24353     24355     24354     24356     24358     24357     24359
     24361     24360     24362     24364     24363     24365     24367     24366     24368
     24370     24369     24371     24373     24372     24374     24376     24375     24377
     24379     24378     24380     24382     24381     24383     24385     24384     24386
     24388     24387     24389     24391     24390     24392     24394     24393     24395
     24397     24396     24398     24400     24399     24401     24403     24402     24404
     24406     24405     24407     24409     24408     24410     24412     24411     24413
     24415     24414     24416     24418     24417     24419     24421     24420     24422
     24424     24423     24425     24427     24426     24428     24430     24429     24431
     24433     24432     24434     24436     24435     24437     24439     24438     24440
     24442     24441     24443     24445     24444     24446     24448     24447     24449
     24451     24450     24452     24454     24453     24455     24457     24456     24458
     24460     24459     24461     24463     24462     24464     24466     24465     24467
     24469     24468     24470     24472     24471     24473     24475     24474     24476
     24478     24477     24479     24481     24480     24482     24484     24483     24485
     24487     24486     24488     24490     24489     24491     24493     24492     24494
     24496     24495     24497     24499     24498     24500     24502     24501     24503
     24505     24504     24506     24508     24507     24509     24511     24510     24512
     24514     24513     24515     24517     24516     24518     24520     24519     24521
     24523     24522     24524     24526     24525     24527     24529     24528     24530
     24532     24531     24533     24535     24534     24536     24538     24537     24539
     24541     24540     24542     24544     24543     24545     24547     24546     24548
     24550     24549     24551     24553     24552     24554     24556     24555     24557
     24559     24558     24560     24562     24561     24563     24565     24564     24566
     24568     24567     24569     24571     24570     24572     24574     24573     24575
     24577     24576     24578     24580     24579     24581     24583     24582     24584
     24586     24585     24587     24589     24588     24590     24592     24591     24593
     24595     24594     24596     24598     24597     24599     24601     24600     24602
     24604     24603     24605     24607     24606     24608     24610     24609     24611
     24613     24612     24614     24616     24615     24617     24619     24618     24620
     24622     24621     24623     24625     24624     24626     24628     24627     24629
     24631     24630     24632     24634     24633     24635     24637     24636     24638
     24640     24639     24641     24643     24642     24644     24646     24645     24647
     24649     24648     24650     24652     24651     24653     24655     24654     24656
     24658     24657     24659     24661     24660     24662     24664     24663     24665
     24667     24666     24668     24670     24669     24671     24673     24672     24674
     24676     24675     24677     24679     24678     24680     24682     24681     24683
     24685     24684     24686     24688     24687     24689     24691     24690     24692
     24694     24693     24695     24697     24696     24698     24700     24699     24701
     24703     24702     24704     24706     24705     24707     24709     24708     24710
     24712     24711     24713     24715     24714     24716     24718     24717     24719
     24721     24720     24722     24724     24723     24725     24727     24726     24728
     24730     24729     24731     24733     24732     24734     24736     24735     24737
     24739     24738     24740     24742     24741     24743     24745     24744     24746
     24748     24747     24749     24751     24750     24752     24754     24753     24755
     24757     24756     24758     24760     24759     24761     24763     24762     24764
     24766     24765     24767     24769     24768     24770     24772     24771     24773
     24775     24774     24776     24778     24777     24779     24781     24780     24782
     24784     24783     24785     24787     24786     24788     24790     24789     24791
     24793     24792     24794     24796     24795     24797     24799     24798     24800
     24802     24801     24803     24805     24804     24806     24808     24807     24809
     24811     24810     24812     24814     24813     24815     24817     24816     24818
     24820     24819     24821     24823     24822     24824     24826     24825     24827
     24829     24828     24830     24832     24831     24833     24835     24834     24836
     24838     24837     24839     24841     24840     24842     24844     24843     24845
     24847     24846     24848     24850     24849     24851     24853     24852     24854
     24856     24855     24857     24859     24858     24860     24862     24861     24863
     24865     24864     24866     24868     24867     24869     24871     24870     24872
     24874     24873     24875     24877     24876     24878     24880     24879     24881
     24883     24882     24884     24886     24885     24887     24889     24888     24890
     24892     24891     24893     24895     24894     24896     24898     24897     24899
     24901     24900     24902     24904     24903     24905     24907     24906     24908
     24910     24909     24911     24913     24912     24914     24916     24915     24917
     24919     24918     24920     24922     24921     24923     24925     24924     24926
     24928     24927     24929     24931     24930     24932     24934     24933     24935
     24937     24936     24938     24940     24939     24941     24943     24942     24944
     24946     24945     24947     24949     24948     24950     24952     24951     24953
     24955     24954     24956     24958     24957     24959     24961     24960     24962
     24964     24963     24965     24967     24966     24968     24970     24969     24971
     24973     24972     24974     24976     24975     24977     24979     24978     24980
     24982     24981     24983     24985     24984     24986     24988     24987     24989
     24991     24990     24992     24994     24993     24995     24997     24996     24998
     25000     24999     25001     25003     25002     25004     25006     25005     25007
     25009     25008     25010     25012     25011     25013     25015     25014     25016
     25018     25017     25019     25021     25020     25022     25024     25023     25025
     25027     25026     25028     25030     25029     25031     25033     25032     25034
     25036     25035     25037     25039     25038     25040     25042     25041     25043
     25045     25044     25046     25048     25047     25049     25051     25050     25052
     25054     25053     25055     25057     25056     25058     25060     25059     25061
     25063     25062     25064     25066     25065     25067     25069     25068     25070
     25072     25071     25073     25075     25074     25076     25078     25077     25079
     25081     25080     25082     25084     25083     25085     25087     25086     25088
     25090     25089     25091     25093     25092     25094     25096     25095     25097
     25099     25098     25100     25102     25101     25103     25105     25104     25106
     25108     25107     25109     25111     25110     25112     25114     25113     25115
     25117     25116     25118     25120     25119     25121     25123     25122     25124
     25126     25125     25127     25129     25128     25130     25132     25131     25133
     25135     25134     25136     25138     25137     25139     25141     25140     25142
     25144     25143     25145     25147     25146     25148     25150     25149     25151
     25153     25152     25154     25156     25155     25157     25159     25158     25160
     25162     25161     25163     25165     25164     25166     25168     25167     25169
     25171     25170     25172     25174     25173     25175     25177     25176     25178
     25180     25179     25181     25183     25182     25184     25186     25185     25187
     25189     25188     25190     25192     25191     25193     25195     25194     25196
     25198     25197     25199     25201     25200     25202     25204     25203     25205
     25207     25206     25208     25210     25209     25211     25213     25212     25214
     25216     25215     25217     25219     25218     25220     25222     25221     25223
     25225     25224     25226     25228     25227     25229     25231     25230     25232
     25234     25233     25235     25237     25236     25238     25240     25239     25241
     25243     25242     25244     25246     25245     25247     25249     25248     25250
     25252     25251     25253     25255     25254     25256     25258     25257     25259
     25261     25260     25262     25264     25263     25265     25267     25266     25268
     25270     25269     25271     25273     25272     25274     25276     25275     25277
     25279     25278     25280     25282     25281     25283     25285     25284     25286
     25288     25287     25289     25291     25290     25292     25294     25293     25295
     25297     25296     25298     25300     25299     25301     25303     25302     25304
     25306     25305     25307     25309     25308     25310     25312     25311     25313
     25315     25314     25316     25318     25317     25319     25321     25320     25322
     25324     25323     25325     25327     25326     25328     25330     25329     25331
     25333     25332     25334     25336     25335     25337     25339     25338     25340
     25342     25341     25343     25345     25344     25346     25348     25347     25349
     25351     25350     25352     25354     25353     25355     25357     25356     25358
     25360     25359     25361     25363     25362     25364     25366     25365     25367
     25369     25368     25370     25372     25371     25373     25375     25374     25376
     25378     25377     25379     25381     25380     25382     25384     25383     25385
     25387     25386     25388     25390     25389     25391     25393     25392     25394
     25396     25395     25397     25399     25398     25400     25402     25401     25403
     25405     25404     25406     25408     25407     25409     25411     25410     25412
     25414     25413     25415     25417     25416     25418     25420     25419     25421
     25423     25422     25424     25426     25425     25427     25429     25428     25430
     25432     25431     25433     25435     25434     25436     25438     25437     25439
     25441     25440     25442     25444     25443     25445     25447     25446     25448
     25450     25449     25451     25453     25452     25454     25456     25455     25457
     25459     25458     25460     25462     25461     25463     25465     25464     25466
     25468     25467     25469     25471     25470     25472     25474     25473     25475
     25477     25476     25478     25480     25479     25481     25483     25482     25484
     25486     25485     25487     25489     25488     25490     25492     25491     25493
     25495     25494     25496     25498     25497     25499     25501     25500     25502
     25504     25503     25505     25507     25506     25508     25510     25509     25511
     25513     25512     25514     25516     25515     25517     25519     25518     25520
     25522     25521     25523     25525     25524     25526     25528     25527     25529
     25531     25530     25532     25534     25533     25535     25537     25536     25538
     25540     25539     25541     25543     25542     25544     25546     25545     25547
     25549     25548     25550     25552     25551     25553     25555     25554     25556
     25558     25557     25559     25561     25560     25562     25564     25563     25565
     25567     25566     25568     25570     25569     25571     25573     25572     25574
     25576     25575     25577     25579     25578     25580     25582     25581     25583
     25585     25584     25586     25588     25587     25589     25591     25590     25592
     25594     25593     25595     25597     25596     25598     25600     25599     25601
     25603     25602     25604     25606     25605     25607     25609     25608     25610
     25612     25611     25613     25615     25614     25616     25618     25617     25619
     25621     25620     25622     25624     25623     25625     25627     25626     25628
     25630     25629     25631     25633     25632     25634     25636     25635     25637
     25639     25638     25640     25642     25641     25643     25645     25644     25646
     25648     25647     25649     25651     25650     25652     25654     25653     25655
     25657     25656     25658     25660     25659     25661     25663     25662     25664
     25666     25665     25667     25669     25668     25670     25672     25671     25673
     25675     25674     25676     25678     25677     25679     25681     25680     25682
     25684     25683     25685     25687     25686     25688     25690     25689     25691
     25693     25692     25694     25696     25695     25697     25699     25698     25700
     25702     25701     25703     25705     25704     25706     25708     25707     25709
     25711     25710     25712     25714     25713     25715     25717     25716     25718
     25720     25719     25721     25723     25722     25724     25726     25725     25727
     25729     25728     25730     25732     25731     25733     25735     25734     25736
     25738     25737     25739     25741     25740     25742     25744     25743     25745
     25747     25746     25748     25750     25749     25751     25753     25752     25754
     25756     25755     25757     25759     25758     25760     25762     25761     25763
     25765     25764     25766     25768     25767     25769     25771     25770     25772
     25774     25773     25775     25777     25776     25778     25780     25779     25781
     25783     25782     25784     25786     25785     25787     25789     25788     25790
     25792     25791     25793     25795     25794     25796     25798     25797     25799
     25801     25800     25802     25804     25803     25805     25807     25806     25808
     25810     25809     25811     25813     25812     25814     25816     25815     25817
     25819     25818     25820     25822     25821     25823     25825     25824     25826
     25828     25827     25829     25831     25830     25832     25834     25833     25835
     25837     25836     25838     25840     25839     25841     25843     25842     25844
     25846     25845     25847     25849     25848     25850     25852     25851     25853
     25855     25854     25856     25858     25857     25859     25861     25860     25862
     25864     25863     25865     25867     25866     25868     25870     25869     25871
     25873     25872     25874     25876     25875     25877     25879     25878     25880
     25882     25881     25883     25885     25884     25886     25888     25887     25889
     25891     25890     25892     25894     25893     25895     25897     25896     25898
     25900     25899     25901     25903     25902     25904     25906     25905     25907
     25909     25908     25910     25912     25911     25913     25915     25914     25916
     25918     25917     25919     25921     25920     25922     25924     25923     25925
     25927     25926     25928     25930     25929     25931     25933     25932     25934
     25936     25935     25937     25939     25938     25940     25942     25941     25943
     25945     25944     25946     25948     25947     25949     25951     25950     25952
     25954     25953     25955     25957     25956     25958     25960     25959     25961
     25963     25962     25964     25966     25965     25967     25969     25968     25970
     25972     25971     25973     25975     25974     25976     25978     25977     25979
     25981     25980     25982     25984     25983     25985     25987     25986     25988
     25990     25989     25991     25993     25992     25994     25996     25995     25997
     25999     25998     26000     26002     26001     26003     26005     26004     26006
     26008     26007     26009     26011     26010     26012     26014     26013     26015
     26017     26016     26018     26020     26019     26021     26023     26022     26024
     26026     26025     26027     26029     26028     26030     26032     26031     26033
     26035     26034     26036     26038     26037     26039     26041     26040     26042
     26044     26043     26045     26047     26046     26048     26050     26049     26051
     26053     26052     26054     26056     26055     26057     26059     26058     26060
     26062     26061     26063     26065     26064     26066     26068     26067     26069
     26071     26070     26072     26074     26073     26075     26077     26076     26078
     26080     26079     26081     26083     26082     26084     26086     26085     26087
     26089     26088     26090     26092     26091     26093     26095     26094     26096
     26098     26097     26099     26101     26100     26102     26104     26103     26105
     26107     26106     26108     26110     26109     26111     26113     26112     26114
     26116     26115     26117     26119     26118     26120     26122     26121     26123
     26125     26124     26126     26128     26127     26129     26131     26130     26132
     26134     26133     26135     26137     26136     26138     26140     26139     26141
     26143     26142     26144     26146     26145     26147     26149     26148     26150
     26152     26151     26153     26155     26154     26156     26158     26157     26159
     26161     26160     26162     26164     26163     26165     26167     26166     26168
     26170     26169     26171     26173     26172     26174     26176     26175     26177
     26179     26178     26180     26182     26181     26183     26185     26184     26186
     26188     26187     26189     26191     26190     26192     26194     26193     26195
     26197     26196     26198     26200     26199     26201     26203     26202     26204
     26206     26205     26207     26209     26208     26210     26212     26211     26213
     26215     26214     26216     26218     26217     26219     26221     26220     26222
     26224     26223     26225     26227     26226     26228     26230     26229     26231
     26233     26232     26234     26236     26235     26237     26239     26238     26240
     26242     26241     26243     26245     26244     26246     26248     26247     26249
     26251     26250     26252     26254     26253     26255     26257     26256     26258
     26260     26259     26261     26263     26262     26264     26266     26265     26267
     26269     26268     26270     26272     26271     26273     26275     26274     26276
     26278     26277     26279     26281     26280     26282     26284     26283     26285
     26287     26286     26288     26290     26289     26291     26293     26292     26294
     26296     26295     26297     26299     26298     26300     26302     26301     26303
     26305     26304     26306     26308     26307     26309     26311     26310     26312
     26314     26313     26315     26317     26316     26318     26320     26319     26321
     26323     26322     26324     26326     26325     26327     26329     26328     26330
     26332     26331     26333     26335     26334     26336     26338     26337     26339
     26341     26340     26342     26344     26343     26345     26347     26346     26348
     26350     26349     26351     26353     26352     26354     26356     26355     26357
     26359     26358     26360     26362     26361     26363     26365     26364     26366
     26368     26367     26369     26371     26370     26372     26374     26373     26375
     26377     26376     26378     26380     26379     26381     26383     26382     26384
     26386     26385     26387     26389     26388     26390     26392     26391     26393
     26395     26394     26396     26398     26397     26399     26401     26400     26402
     26404     26403     26405     26407     26406     26408     26410     26409     26411
     26413     26412     26414     26416     26415     26417     26419     26418     26420
     26422     26421     26423     26425     26424     26426     26428     26427     26429
     26431     26430     26432     26434     26433     26435     26437     26436     26438
     26440     26439     26441     26443     26442     26444     26446     26445     26447
     26449     26448     26450     26452     26451     26453     26455     26454     26456
     26458     26457     26459     26461     26460     26462     26464     26463     26465
     26467     26466     26468     26470     26469     26471     26473     26472     26474
     26476     26475     26477     26479     26478     26480     26482     26481     26483
     26485     26484     26486     26488     26487     26489     26491     26490     26492
     26494     26493     26495     26497     26496     26498     26500     26499     26501
     26503     26502     26504     26506     26505     26507     26509     26508     26510
     26512     26511     26513     26515     26514     26516     26518     26517     26519
     26521     26520     26522     26524     26523     26525     26527     26526     26528
     26530     26529     26531     26533     26532     26534     26536     26535     26537
     26539     26538     26540     26542     26541     26543     26545     26544     26546
     26548     26547     26549     26551     26550     26552     26554     26553     26555
     26557     26556     26558     26560     26559     26561     26563     26562     26564
     26566     26565     26567     26569     26568     26570     26572     26571     26573
     26575     26574     26576     26578     26577     26579     26581     26580     26582
     26584     26583     26585     26587     26586     26588     26590     26589     26591
     26593     26592     26594     26596     26595     26597     26599     26598     26600
     26602     26601     26603     26605     26604     26606     26608     26607     26609
     26611     26610     26612     26614     26613     26615     26617     26616     26618
     26620     26619     26621     26623     26622     26624     26626     26625     26627
     26629     26628     26630     26632     26631     26633     26635     26634     26636
     26638     26637     26639     26641     26640     26642     26644     26643     26645
     26647     26646     26648     26650     26649     26651     26653     26652     26654
     26656     26655     26657     26659     26658     26660     26662     26661     26663
     26665     26664     26666     26668     26667     26669     26671     26670     26672
     26674     26673     26675     26677     26676     26678     26680     26679     26681
     26683     26682     26684     26686     26685     26687     26689     26688     26690
     26692     26691     26693     26695     26694     26696     26698     26697     26699
     26701     26700     26702     26704     26703     26705     26707     26706     26708
     26710     26709     26711     26713     26712     26714     26716     26715     26717
     26719     26718     26720     26722     26721     26723     26725     26724     26726
     26728     26727     26729     26731     26730     26732     26734     26733     26735
     26737     26736     26738     26740     26739     26741     26743     26742     26744
     26746     26745     26747     26749     26748     26750     26752     26751     26753
     26755     26754     26756     26758     26757     26759     26761     26760     26762
     26764     26763     26765     26767     26766     26768     26770     26769     26771
     26773     26772     26774     26776     26775     26777     26779     26778     26780
     26782     26781     26783     26785     26784     26786     26788     26787     26789
     26791     26790     26792     26794     26793     26795     26797     26796     26798
     26800     26799     26801     26803     26802     26804     26806     26805     26807
     26809     26808     26810     26812     26811     26813     26815     26814     26816
     26818     26817     26819     26821     26820     26822     26824     26823     26825
     26827     26826     26828     26830     26829     26831     26833     26832     26834
     26836     26835     26837     26839     26838     26840     26842     26841     26843
     26845     26844     26846     26848     26847     26849     26851     26850     26852
     26854     26853     26855     26857     26856     26858     26860     26859     26861
     26863     26862     26864     26866     26865     26867     26869     26868     26870
     26872     26871     26873     26875     26874     26876     26878     26877     26879
     26881     26880     26882     26884     26883     26885     26887     26886     26888
     26890     26889     26891     26893     26892     26894     26896     26895     26897
     26899     26898     26900     26902     26901     26903     26905     26904     26906
     26908     26907     26909     26911     26910     26912     26914     26913     26915
     26917     26916     26918     26920     26919     26921     26923     26922     26924
     26926     26925     26927     26929     26928     26930     26932     26931     26933
     26935     26934     26936     26938     26937     26939     26941     26940     26942
     26944     26943     26945     26947     26946     26948     26950     26949     26951
     26953     26952     26954     26956     26955     26957     26959     26958     26960
     26962     26961     26963     26965     26964     26966     26968     26967     26969
     26971     26970     26972     26974     26973     26975     26977     26976     26978
     26980     26979     26981     26983     26982     26984     26986     26985     26987
     26989     26988     26990     26992     26991     26993     26995     26994     26996
     26998     26997     26999     27001     27000     27002     27004     27003     27005
     27007     27006     27008     27010     27009     27011     27013     27012     27014
     27016     27015     27017     27019     27018     27020     27022     27021     27023
     27025     27024     27026     27028     27027     27029     27031     27030     27032
     27034     27033     27035     27037     27036     27038     27040     27039     27041
     27043     27042     27044     27046     27045     27047     27049     27048     27050
     27052     27051     27053     27055     27054     27056     27058     27057     27059
     27061     27060     27062     27064     27063     27065     27067     27066     27068
     27070     27069     27071     27073     27072     27074     27076     27075     27077
     27079     27078     27080     27082     27081     27083     27085     27084     27086
     27088     27087     27089     27091     27090     27092     27094     27093     27095
     27097     27096     27098     27100     27099     27101     27103     27102     27104
     27106     27105     27107     27109     27108     27110     27112     27111     27113
     27115     27114     27116     27118     27117     27119     27121     27120     27122
     27124     27123     27125     27127     27126     27128     27130     27129     27131
     27133     27132     27134     27136     27135     27137     27139     27138     27140
     27142     27141     27143     27145     27144     27146     27148     27147     27149
     27151     27150     27152     27154     27153     27155     27157     27156     27158
     27160     27159     27161     27163     27162     27164     27166     27165     27167
     27169     27168     27170     27172     27171     27173     27175     27174     27176
     27178     27177     27179     27181     27180     27182     27184     27183     27185
     27187     27186     27188     27190     27189     27191     27193     27192     27194
     27196     27195     27197     27199     27198     27200     27202     27201     27203
     27205     27204     27206     27208     27207     27209     27211     27210     27212
     27214     27213     27215     27217     27216     27218     27220     27219     27221
     27223     27222     27224     27226     27225     27227     27229     27228     27230
     27232     27231     27233     27235     27234     27236     27238     27237     27239
     27241     27240     27242     27244     27243     27245     27247     27246     27248
     27250     27249     27251     27253     27252     27254     27256     27255     27257
     27259     27258     27260     27262     27261     27263     27265     27264     27266
     27268     27267     27269     27271     27270     27272     27274     27273     27275
     27277     27276     27278     27280     27279     27281     27283     27282     27284
     27286     27285     27287     27289     27288     27290     27292     27291     27293
     27295     27294     27296     27298     27297     27299     27301     27300     27302
     27304     27303     27305     27307     27306     27308     27310     27309     27311
     27313     27312     27314     27316     27315     27317     27319     27318     27320
     27322     27321     27323     27325     27324     27326     27328     27327     27329
     27331     27330     27332     27334     27333     27335     27337     27336     27338
     27340     27339     27341     27343     27342     27344     27346     27345     27347
     27349     27348     27350     27352     27351     27353     27355     27354     27356
     27358     27357     27359     27361     27360     27362     27364     27363     27365
     27367     27366     27368     27370     27369     27371     27373     27372     27374
     27376     27375     27377     27379     27378     27380     27382     27381     27383
     27385     27384     27386     27388     27387     27389     27391     27390     27392
     27394     27393     27395     27397     27396     27398     27400     27399     27401
     27403     27402     27404     27406     27405     27407     27409     27408     27410
     27412     27411     27413     27415     27414     27416     27418     27417     27419
     27421     27420     27422     27424     27423     27425     27427     27426     27428
     27430     27429     27431     27433     27432     27434     27436     27435     27437
     27439     27438     27440     27442     27441     27443     27445     27444     27446
     27448     27447     27449     27451     27450     27452     27454     27453     27455
     27457     27456     27458     27460     27459     27461     27463     27462     27464
     27466     27465     27467     27469     27468     27470     27472     27471     27473
     27475     27474     27476     27478     27477     27479     27481     27480     27482
     27484     27483     27485     27487     27486     27488     27490     27489     27491
     27493     27492     27494     27496     27495     27497     27499     27498     27500
     27502     27501     27503     27505     27504     27506     27508     27507     27509
     27511     27510     27512     27514     27513     27515     27517     27516     27518
     27520     27519     27521     27523     27522     27524     27526     27525     27527
     27529     27528     27530     27532     27531     27533     27535     27534     27536
     27538     27537     27539     27541     27540     27542     27544     27543     27545
     27547     27546     27548     27550     27549     27551     27553     27552     27554
     27556     27555     27557     27559     27558     27560     27562     27561     27563
     27565     27564     27566     27568     27567     27569     27571     27570     27572
     27574     27573     27575     27577     27576     27578     27580     27579     27581
     27583     27582     27584     27586     27585     27587     27589     27588     27590
     27592     27591     27593     27595     27594     27596     27598     27597     27599
     27601     27600     27602     27604     27603     27605     27607     27606     27608
     27610     27609     27611     27613     27612     27614     27616     27615     27617
     27619     27618     27620     27622     27621     27623     27625     27624     27626
     27628     27627     27629     27631     27630     27632     27634     27633     27635
     27637     27636     27638     27640     27639     27641     27643     27642     27644
     27646     27645     27647     27649     27648     27650     27652     27651     27653
     27655     27654     27656     27658     27657     27659     27661     27660     27662
     27664     27663     27665     27667     27666     27668     27670     27669     27671
     27673     27672     27674     27676     27675     27677     27679     27678     27680
     27682     27681     27683     27685     27684     27686     27688     27687     27689
     27691     27690     27692     27694     27693     27695     27697     27696     27698
     27700     27699     27701     27703     27702     27704     27706     27705     27707
     27709     27708     27710     27712     27711     27713     27715     27714     27716
     27718     27717     27719     27721     27720     27722     27724     27723     27725
     27727     27726     27728     27730     27729     27731     27733     27732     27734
     27736     27735     27737     27739     27738     27740     27742     27741     27743
     27745     27744     27746     27748     27747     27749     27751     27750     27752
     27754     27753     27755     27757     27756     27758     27760     27759     27761
     27763     27762     27764     27766     27765     27767     27769     27768     27770
     27772     27771     27773     27775     27774     27776     27778     27777     27779
     27781     27780     27782     27784     27783     27785     27787     27786     27788
     27790     27789     27791     27793     27792     27794     27796     27795     27797
     27799     27798     27800     27802     27801     27803     27805     27804     27806
     27808     27807     27809     27811     27810     27812     27814     27813     27815
     27817     27816     27818     27820     27819     27821     27823     27822     27824
     27826     27825     27827     27829     27828     27830     27832     27831     27833
     27835     27834     27836     27838     27837     27839     27841     27840     27842
     27844     27843     27845     27847     27846     27848     27850     27849     27851
     27853     27852     27854     27856     27855     27857     27859     27858     27860
     27862     27861     27863     27865     27864     27866     27868     27867     27869
     27871     27870     27872     27874     27873     27875     27877     27876     27878
     27880     27879     27881     27883     27882     27884     27886     27885     27887
     27889     27888     27890     27892     27891     27893     27895     27894     27896
     27898     27897     27899     27901     27900     27902     27904     27903     27905
     27907     27906     27908     27910     27909     27911     27913     27912     27914
     27916     27915     27917     27919     27918     27920     27922     27921     27923
     27925     27924     27926     27928     27927     27929     27931     27930     27932
     27934     27933     27935     27937     27936     27938     27940     27939     27941
     27943     27942     27944     27946     27945     27947     27949     27948     27950
     27952     27951     27953     27955     27954     27956     27958     27957     27959
     27961     27960     27962     27964     27963     27965     27967     27966     27968
     27970     27969     27971     27973     27972     27974     27976     27975     27977
     27979     27978     27980     27982     27981     27983     27985     27984     27986
     27988     27987     27989     27991     27990     27992     27994     27993     27995
     27997     27996     27998     28000     27999     28001     28003     28002     28004
     28006     28005     28007     28009     28008     28010     28012     28011     28013
     28015     28014     28016     28018     28017     28019     28021     28020     28022
     28024     28023     28025     28027     28026     28028     28030     28029     28031
     28033     28032     28034     28036     28035     28037     28039     28038     28040
     28042     28041     28043     28045     28044     28046     28048     28047     28049
     28051     28050     28052     28054     28053     28055     28057     28056     28058
     28060     28059     28061     28063     28062     28064     28066     28065     28067
     28069     28068     28070     28072     28071     28073     28075     28074     28076
     28078     28077     28079     28081     28080     28082     28084     28083     28085
     28087     28086     28088     28090     28089     28091     28093     28092     28094
     28096     28095     28097     28099     28098     28100     28102     28101     28103
     28105     28104     28106     28108     28107     28109     28111     28110     28112
     28114     28113     28115     28117     28116     28118     28120     28119     28121
     28123     28122     28124     28126     28125     28127     28129     28128     28130
     28132     28131     28133     28135     28134     28136     28138     28137     28139
     28141     28140     28142     28144     28143     28145     28147     28146     28148
     28150     28149     28151     28153     28152     28154     28156     28155     28157
     28159     28158     28160     28162     28161     28163     28165     28164     28166
     28168     28167     28169     28171     28170     28172     28174     28173     28175
     28177     28176     28178     28180     28179     28181     28183     28182     28184
     28186     28185     28187     28189     28188     28190     28192     28191     28193
     28195     28194     28196     28198     28197     28199     28201     28200     28202
     28204     28203     28205     28207     28206     28208     28210     28209     28211
     28213     28212     28214     28216     28215     28217     28219     28218     28220
     28222     28221     28223     28225     28224     28226     28228     28227     28229
     28231     28230     28232     28234     28233     28235     28237     28236     28238
     28240     28239     28241     28243     28242     28244     28246     28245     28247
     28249     28248     28250     28252     28251     28253     28255     28254     28256
     28258     28257     28259     28261     28260     28262     28264     28263     28265
     28267     28266     28268     28270     28269     28271     28273     28272     28274
     28276     28275     28277     28279     28278     28280     28282     28281     28283
     28285     28284     28286     28288     28287     28289     28291     28290     28292
     28294     28293     28295     28297     28296     28298     28300     28299     28301
     28303     28302     28304     28306     28305     28307     28309     28308     28310
     28312     28311     28313     28315     28314     28316     28318     28317     28319
     28321     28320     28322     28324     28323     28325     28327     28326     28328
     28330     28329     28331     28333     28332     28334     28336     28335     28337
     28339     28338     28340     28342     28341     28343     28345     28344     28346
     28348     28347     28349     28351     28350     28352     28354     28353     28355
     28357     28356     28358     28360     28359     28361     28363     28362     28364
     28366     28365     28367     28369     28368     28370     28372     28371     28373
     28375     28374     28376     28378     28377     28379     28381     28380     28382
     28384     28383     28385     28387     28386     28388     28390     28389     28391
     28393     28392     28394     28396     28395     28397     28399     28398     28400
     28402     28401     28403     28405     28404     28406     28408     28407     28409
     28411     28410     28412     28414     28413     28415     28417     28416     28418
     28420     28419     28421     28423     28422     28424     28426     28425     28427
     28429     28428     28430     28432     28431     28433     28435     28434     28436
     28438     28437     28439     28441     28440     28442     28444     28443     28445
     28447     28446     28448     28450     28449     28451     28453     28452     28454
     28456     28455     28457     28459     28458     28460     28462     28461     28463
     28465     28464     28466     28468     28467     28469     28471     28470     28472
     28474     28473     28475     28477     28476     28478     28480     28479     28481
     28483     28482     28484     28486     28485     28487     28489     28488     28490
     28492     28491     28493     28495     28494     28496     28498     28497     28499
     28501     28500     28502     28504     28503     28505     28507     28506     28508
     28510     28509     28511     28513     28512     28514     28516     28515     28517
     28519     28518     28520     28522     28521     28523     28525     28524     28526
     28528     28527     28529     28531     28530     28532     28534     28533     28535
     28537     28536     28538     28540     28539     28541     28543     28542     28544
     28546     28545     28547     28549     28548     28550     28552     28551     28553
     28555     28554     28556     28558     28557     28559     28561     28560     28562
     28564     28563     28565     28567     28566     28568     28570     28569     28571
     28573     28572     28574     28576     28575     28577     28579     28578     28580
     28582     28581     28583     28585     28584     28586     28588     28587     28589
     28591     28590     28592     28594     28593     28595     28597     28596     28598
     28600     28599     28601     28603     28602     28604     28606     28605     28607
     28609     28608     28610     28612     28611     28613     28615     28614     28616
     28618     28617     28619     28621     28620     28622     28624     28623     28625
     28627     28626     28628     28630     28629     28631     28633     28632     28634
     28636     28635     28637     28639     28638     28640     28642     28641     28643
     28645     28644     28646     28648     28647     28649     28651     28650     28652
     28654     28653     28655     28657     28656     28658     28660     28659     28661
     28663     28662     28664     28666     28665     28667     28669     28668     28670
     28672     28671     28673     28675     28674     28676     28678     28677     28679
     28681     28680     28682     28684     28683     28685     28687     28686     28688
     28690     28689     28691     28693     28692     28694     28696     28695     28697
     28699     28698     28700     28702     28701     28703     28705     28704     28706
     28708     28707     28709     28711     28710     28712     28714     28713     28715
     28717     28716     28718     28720     28719     28721     28723     28722     28724
     28726     28725     28727     28729     28728     28730     28732     28731     28733
     28735     28734     28736     28738     28737     28739     28741     28740     28742
     28744     28743     28745     28747     28746     28748     28750     28749     28751
     28753     28752     28754     28756     28755     28757     28759     28758     28760
     28762     28761     28763     28765     28764     28766     28768     28767     28769
     28771     28770     28772     28774     28773     28775     28777     28776     28778
     28780     28779     28781     28783     28782     28784     28786     28785     28787
     28789     28788     28790     28792     28791     28793     28795     28794     28796
     28798     28797     28799     28801     28800     28802     28804     28803     28805
     28807     28806     28808     28810     28809     28811     28813     28812     28814
     28816     28815     28817     28819     28818     28820     28822     28821     28823
     28825     28824     28826     28828     28827     28829     28831     28830     28832
     28834     28833     28835     28837     28836     28838     28840     28839     28841
     28843     28842     28844     28846     28845     28847     28849     28848     28850
     28852     28851     28853     28855     28854     28856     28858     28857     28859
     28861     28860     28862     28864     28863     28865     28867     28866     28868
     28870     28869     28871     28873     28872     28874     28876     28875     28877
     28879     28878     28880     28882     28881     28883     28885     28884     28886
     28888     28887     28889     28891     28890     28892     28894     28893     28895
     28897     28896     28898     28900     28899     28901     28903     28902     28904
     28906     28905     28907     28909     28908     28910     28912     28911     28913
     28915     28914     28916     28918     28917     28919     28921     28920     28922
     28924     28923     28925     28927     28926     28928     28930     28929     28931
     28933     28932     28934     28936     28935     28937     28939     28938     28940
     28942     28941     28943     28945     28944     28946     28948     28947     28949
     28951     28950     28952     28954     28953     28955     28957     28956     28958
     28960     28959     28961     28963     28962     28964     28966     28965     28967
     28969     28968     28970     28972     28971     28973     28975     28974     28976
     28978     28977     28979     28981     28980     28982     28984     28983     28985
     28987     28986     28988     28990     28989     28991     28993     28992     28994
     28996     28995     28997     28999     28998     29000     29002     29001     29003
     29005     29004     29006     29008     29007     29009     29011     29010     29012
     29014     29013     29015     29017     29016     29018     29020     29019     29021
     29023     29022     29024     29026     29025     29027     29029     29028     29030
     29032     29031     29033     29035     29034     29036     29038     29037     29039
     29041     29040     29042     29044     29043     29045     29047     29046     29048
     29050     29049     29051     29053     29052     29054     29056     29055     29057
     29059     29058     29060     29062     29061     29063     29065     29064     29066
     29068     29067     29069     29071     29070     29072     29074     29073     29075
     29077     29076     29078     29080     29079     29081     29083     29082     29084
     29086     29085     29087     29089     29088     29090     29092     29091     29093
     29095     29094     29096     29098     29097     29099     29101     29100     29102
     29104     29103     29105     29107     29106     29108     29110     29109     29111
     29113     29112     29114     29116     29115     29117     29119     29118     29120
     29122     29121     29123     29125     29124     29126     29128     29127     29129
     29131     29130     29132     29134     29133     29135     29137     29136     29138
     29140     29139     29141     29143     29142     29144     29146     29145     29147
     29149     29148     29150     29152     29151     29153     29155     29154     29156
     29158     29157     29159     29161     29160     29162     29164     29163     29165
     29167     29166     29168     29170     29169     29171     29173     29172     29174
     29176     29175     29177     29179     29178     29180     29182     29181     29183
     29185     29184     29186     29188     29187     29189     29191     29190     29192
     29194     29193     29195     29197     29196     29198     29200     29199     29201
     29203     29202     29204     29206     29205     29207     29209     29208     29210
     29212     29211     29213     29215     29214     29216     29218     29217     29219
     29221     29220     29222     29224     29223     29225     29227     29226     29228
     29230     29229     29231     29233     29232     29234     29236     29235     29237
     29239     29238     29240     29242     29241     29243     29245     29244     29246
     29248     29247     29249     29251     29250     29252     29254     29253     29255
     29257     29256     29258     29260     29259     29261     29263     29262     29264
     29266     29265     29267     29269     29268     29270     29272     29271     29273
     29275     29274     29276     29278     29277     29279     29281     29280     29282
     29284     29283     29285     29287     29286     29288     29290     29289     29291
     29293     29292     29294     29296     29295     29297     29299     29298     29300
     29302     29301     29303     29305     29304     29306     29308     29307     29309
     29311     29310     29312     29314     29313     29315     29317     29316     29318
     29320     29319     29321     29323     29322     29324     29326     29325     29327
     29329     29328     29330     29332     29331     29333     29335     29334     29336
     29338     29337     29339     29341     29340     29342     29344     29343     29345
     29347     29346     29348     29350     29349     29351     29353     29352     29354
     29356     29355     29357     29359     29358     29360     29362     29361     29363
     29365     29364     29366     29368     29367     29369     29371     29370     29372
     29374     29373     29375     29377     29376     29378     29380     29379     29381
     29383     29382     29384     29386     29385     29387     29389     29388     29390
     29392     29391     29393     29395     29394     29396     29398     29397     29399
     29401     29400     29402     29404     29403     29405     29407     29406     29408
     29410     29409     29411     29413     29412     29414     29416     29415     29417
     29419     29418     29420     29422     29421     29423     29425     29424     29426
     29428     29427     29429     29431     29430     29432     29434     29433     29435
     29437     29436     29438     29440     29439     29441     29443     29442     29444
     29446     29445     29447     29449     29448     29450     29452     29451     29453
     29455     29454     29456     29458     29457     29459     29461     29460     29462
     29464     29463     29465     29467     29466     29468     29470     29469     29471
     29473     29472     29474     29476     29475     29477     29479     29478     29480
     29482     29481     29483     29485     29484     29486     29488     29487     29489
     29491     29490     29492     29494     29493     29495     29497     29496     29498
     29500     29499     29501     29503     29502     29504     29506     29505     29507
     29509     29508     29510     29512     29511     29513     29515     29514     29516
     29518     29517     29519     29521     29520     29522     29524     29523     29525
     29527     29526     29528     29530     29529     29531     29533     29532     29534
     29536     29535     29537     29539     29538     29540     29542     29541     29543
     29545     29544     29546     29548     29547     29549     29551     29550     29552
     29554     29553     29555     29557     29556     29558     29560     29559     29561
     29563     29562     29564     29566     29565     29567     29569     29568     29570
     29572     29571     29573     29575     29574     29576     29578     29577     29579
     29581     29580     29582     29584     29583     29585     29587     29586     29588
     29590     29589     29591     29593     29592     29594     29596     29595     29597
     29599     29598     29600     29602     29601     29603     29605     29604     29606
     29608     29607     29609     29611     29610     29612     29614     29613     29615
     29617     29616     29618     29620     29619     29621     29623     29622     29624
     29626     29625     29627     29629     29628     29630     29632     29631     29633
     29635     29634     29636     29638     29637     29639     29641     29640     29642
     29644     29643     29645     29647     29646     29648     29650     29649     29651
     29653     29652     29654     29656     29655     29657     29659     29658     29660
     29662     29661     29663     29665     29664     29666     29668     29667     29669
     29671     29670     29672     29674     29673     29675     29677     29676     29678
     29680     29679     29681     29683     29682     29684     29686     29685     29687
     29689     29688     29690     29692     29691     29693     29695     29694     29696
     29698     29697     29699     29701     29700     29702     29704     29703     29705
     29707     29706     29708     29710     29709     29711     29713     29712     29714
     29716     29715     29717     29719     29718     29720     29722     29721     29723
     29725     29724     29726     29728     29727     29729     29731     29730     29732
     29734     29733     29735     29737     29736     29738     29740     29739     29741
     29743     29742     29744     29746     29745     29747     29749     29748     29750
     29752     29751     29753     29755     29754     29756     29758     29757     29759
     29761     29760     29762     29764     29763     29765     29767     29766     29768
     29770     29769     29771     29773     29772     29774     29776     29775     29777
     29779     29778     29780     29782     29781     29783     29785     29784     29786
     29788     29787     29789     29791     29790     29792     29794     29793     29795
     29797     29796     29798     29800     29799     29801     29803     29802     29804
     29806     29805     29807     29809     29808     29810     29812     29811     29813
     29815     29814     29816

     22784 !NPHI: dihedrals
         1         2        17        18         1         2        17        19
         1         2        17        23         2         1         5         6
         2         1         5         7         2         1         5         8
         2         1         9        10         2         1         9        11
         2         1         9        12         2         1        13        14
         2         1        13        15         2         1        13        16
         2        17        23        20         3         2         1         5
         3         2         1         9         3         2         1        13
         3         2        17        18         3         2        17        19
         3         2        17        23         4         2         1         5
         4         2         1         9         4         2         1        13
         4         2        17        18         4         2        17        19
         4         2        17        23         5         1         2        17
         5         1         9        10         5         1         9        11
         5         1         9        12         5         1        13        14
         5         1        13        15         5         1        13        16
         6         5         1         9         6         5         1        13
         7         5         1         9         7         5         1        13
         8         5         1         9         8         5         1        13
         9         1         2        17         9         1        13        14
         9         1        13        15         9         1        13        16
        10         9         1        13        11         9         1        13
        12         9         1        13        13         1         2        17
        17        23        20        21        17        23        20        22
        17        23        20        24        18        17        23        20
        19        17        23        20        20        24        25        26
        20        24        25        27        20        24        25        28
        21        20        24        25        22        20        24        25
        23        20        24        25        24        25        28        29
        24        25        28        30        24        25        28        36
        25        28        30        31        25        28        36        37
        25        28        36        38        25        28        36        39
        26        25        28        29        26        25        28        30
        26        25        28        36        27        25        28        29
        27        25        28        30        27        25        28        36
        28        30        31        32        28        30        31        33
        28        36        39        40        29        28        30        31
        29        28        36        37        29        28        36        38
        29        28        36        39        30        28        36        37
        30        28        36        38        30        28        36        39
        30        31        33        34        30        31        33        35
        30        31        33        45        31        30        28        36
        31        33        45        46        31        33        45        47
        31        33        45        48        32        31        33        34
        32        31        33        35        32        31        33        45
        33        45        48        49        33        45        48        50
        33        45        48        51        34        33        45        46
        34        33        45        47        34        33        45        48
        35        33        45        46        35        33        45        47
        35        33        45        48        36        39        40        41
        36        39        40        42        37        36        39        40
        38        36        39        40        39        40        42        43
        39        40        42        44        39        40        42        92
        40        42        92        93        40        42        92        94
        40        42        92        95        41        40        42        43
        41        40        42        44        41        40        42        92
        42        92        95        96        42        92        95        97
        42        92        95        98        43        42        92        93
        43        42        92        94        43        42        92        95
        44        42        92        93        44        42        92        94
        44        42        92        95        45        48        51        52
        45        48        51        53        45        48        51        54
        46        45        48        49        46        45        48        50
        46        45        48        51        47        45        48        49
        47        45        48        50        47        45        48        51
        48        51        54        55        48        51        54        56
        48        51        54        57        49        48        51        52
        49        48        51        53        49        48        51        54
        50        48        51        52        50        48        51        53
        50        48        51        54        51        54        57        58
        51        54        57        59        51        54        57        60
        52        51        54        55        52        51        54        56
        52        51        54        57        53        51        54        55
        53        51        54        56        53        51        54        57
        54        57        60        61        54        57        60        62
        54        57        60        63        55        54        57        58
        55        54        57        59        55        54        57        60
        56        54        57        58        56        54        57        59
        56        54        57        60        57        60        63        64
        57        60        63        65        58        57        60        61
        58        57        60        62        58        57        60        63
        59        57        60        61        59        57        60        62
        59        57        60        63        60        63        65        66
        60        63        65        67        61        60        63        64
        61        60        63        65        62        60        63        64
        62        60        63        65        63        65        67        68
        63        65        67        69        63        65        67        70
        64        63        65        66        64        63        65        67
        65        67        70        71        65        67        70        72
        65        67        70        73        66        65        67        68
        66        65        67        69        66        65        67        70
        67        70        73        74        67        70        73        75
        67        70        73        76        68        67        70        71
        68        67        70        72        68        67        70        73
        69        67        70        71        69        67        70        72
        69        67        70        73        70        73        76        77
        70        73        76        78        70        73        76        79
        71        70        73        74        71        70        73        75
        71        70        73        76        72        70        73        74
        72        70        73        75        72        70        73        76
        73        76        79        80        73        76        79        81
        73        76        79        82        74        73        76        77
        74        73        76        78        74        73        76        79
        75        73        76        77        75        73        76        78
        75        73        76        79        76        79        82        83
        76        79        82        84        76        79        82        85
        77        76        79        80        77        76        79        81
        77        76        79        82        78        76        79        80
        78        76        79        81        78        76        79        82
        79        82        85        86        79        82        85        87
        79        82        85        88        80        79        82        83
        80        79        82        84        80        79        82        85
        81        79        82        83        81        79        82        84
        81        79        82        85        82        85        88        89
        82        85        88        90        82        85        88        91
        83        82        85        86        83        82        85        87
        83        82        85        88        84        82        85        86
        84        82        85        87        84        82        85        88
        86        85        88        89        86        85        88        90
        86        85        88        91        87        85        88        89
        87        85        88        90        87        85        88        91
        92        95        98        99        92        95        98       100
        92        95        98       101        93        92        95        96
        93        92        95        97        93        92        95        98
        94        92        95        96        94        92        95        97
        94        92        95        98        95        98       101       102
        95        98       101       103        95        98       101       104
        96        95        98        99        96        95        98       100
        96        95        98       101        97        95        98        99
        97        95        98       100        97        95        98       101
        98       101       104       105        98       101       104       106
        98       101       104       107        99        98       101       102
        99        98       101       103        99        98       101       104
       100        98       101       102       100        98       101       103
       100        98       101       104       101       104       107       108
       101       104       107       109       101       104       107       110
       102       101       104       105       102       101       104       106
       102       101       104       107       103       101       104       105
       103       101       104       106       103       101       104       107
       104       107       110       111       104       107       110       112
       104       107       110       113       105       104       107       108
       105       104       107       109       105       104       107       110
       106       104       107       108       106       104       107       109
       106       104       107       110       107       110       113       114
       107       110       113       115       107       110       113       116
       108       107       110       111       108       107       110       112
       108       107       110       113       109       107       110       111
       109       107       110       112       109       107       110       113
       110       113       116       117       110       113       116       118
       110       113       116       119       111       110       113       114
       111       110       113       115       111       110       113       116
       112       110       113       114       112       110       113       115
       112       110       113       116       113       116       119       120
       113       116       119       121       113       116       119       122
       114       113       116       117       114       113       116       118
       114       113       116       119       115       113       116       117
       115       113       116       118       115       113       116       119
       116       119       122       123       116       119       122       124
       116       119       122       125       117       116       119       120
       117       116       119       121       117       116       119       122
       118       116       119       120       118       116       119       121
       118       116       119       122       119       122       125       126
       119       122       125       127       119       122       125       128
       120       119       122       123       120       119       122       124
       120       119       122       125       121       119       122       123
       121       119       122       124       121       119       122       125
       122       125       128       129       122       125       128       130
       122       125       128       131       123       122       125       126
       123       122       125       127       123       122       125       128
       124       122       125       126       124       122       125       127
       124       122       125       128       125       128       131       132
       125       128       131       133       125       128       131       134
       126       125       128       129       126       125       128       130
       126       125       128       131       127       125       128       129
       127       125       128       130       127       125       128       131
       129       128       131       132       129       128       131       133
       129       128       131       134       130       128       131       132
       130       128       131       133       130       128       131       134
       135       136       151       152       135       136       151       153
       135       136       151       157       136       135       139       140
       136       135       139       141       136       135       139       142
       136       135       143       144       136       135       143       145
       136       135       143       146       136       135       147       148
       136       135       147       149       136       135       147       150
       136       151       157       154       137       136       135       139
       137       136       135       143       137       136       135       147
       137       136       151       152       137       136       151       153
       137       136       151       157       138       136       135       139
       138       136       135       143       138       136       135       147
       138       136       151       152       138       136       151       153
       138       136       151       157       139       135       136       151
       139       135       143       144       139       135       143       145
       139       135       143       146       139       135       147       148
       139       135       147       149       139       135       147       150
       140       139       135       143       140       139       135       147
       141       139       135       143       141       139       135       147
       142       139       135       143       142       139       135       147
       143       135       136       151       143       135       147       148
       143       135       147       149       143       135       147       150
       144       143       135       147       145       143       135       147
       146       143       135       147       147       135       136       151
       151       157       154       155       151       157       154       156
       151       157       154       158       152       151       157       154
       153       151       157       154       154       158       159       160
       154       158       159       161       154       158       159       162
       155       154       158       159       156       154       158       159
       157       154       158       159       158       159       162       163
       158       159       162       164       158       159       162       170
       159       162       164       165       159       162       170       171
       159       162       170       172       159       162       170       173
       160       159       162       163       160       159       162       164
       160       159       162       170       161       159       162       163
       161       159       162       164       161       159       162       170
       162       164       165       166       162       164       165       167
       162       170       173       174       163       162       164       165
       163       162       170       171       163       162       170       172
       163       162       170       173       164       162       170       171
       164       162       170       172       164       162       170       173
       164       165       167       168       164       165       167       169
       164       165       167       179       165       164       162       170
       165       167       179       180       165       167       179       181
       165       167       179       182       166       165       167       168
       166       165       167       169       166       165       167       179
       167       179       182       183       167       179       182       184
       167       179       182       185       168       167       179       180
       168       167       179       181       168       167       179       182
       169       167       179       180       169       167       179       181
       169       167       179       182       170       173       174       175
       170       173       174       176       171       170       173       174
       172       170       173       174       173       174       176       177
       173       174       176       178       173       174       176       226
       174       176       226       227       174       176       226       228
       174       176       226       229       175       174       176       177
       175       174       176       178       175       174       176       226
       176       226       229       230       176       226       229       231
       176       226       229       232       177       176       226       227
       177       176       226       228       177       176       226       229
       178       176       226       227       178       176       226       228
       178       176       226       229       179       182       185       186
       179       182       185       187       179       182       185       188
       180       179       182       183       180       179       182       184
       180       179       182       185       181       179       182       183
       181       179       182       184       181       179       182       185
       182       185       188       189       182       185       188       190
       182       185       188       191       183       182       185       186
       183       182       185       187       183       182       185       188
       184       182       185       186       184       182       185       187
       184       182       185       188       185       188       191       192
       185       188       191       193       185       188       191       194
       186       185       188       189       186       185       188       190
       186       185       188       191       187       185       188       189
       187       185       188       190       187       185       188       191
       188       191       194       195       188       191       194       196
       188       191       194       197       189       188       191       192
       189       188       191       193       189       188       191       194
       190       188       191       192       190       188       191       193
       190       188       191       194       191       194       197       198
       191       194       197       199       192       191       194       195
       192       191       194       196       192       191       194       197
       193       191       194       195       193       191       194       196
       193       191       194       197       194       197       199       200
       194       197       199       201       195       194       197       198
       195       194       197       199       196       194       197       198
       196       194       197       199       197       199       201       202
       197       199       201       203       197       199       201       204
       198       197       199       200       198       197       199       201
       199       201       204       205       199       201       204       206
       199       201       204       207       200       199       201       202
       200       199       201       203       200       199       201       204
       201       204       207       208       201       204       207       209
       201       204       207       210       202       201       204       205
       202       201       204       206       202       201       204       207
       203       201       204       205       203       201       204       206
       203       201       204       207       204       207       210       211
       204       207       210       212       204       207       210       213
       205       204       207       208       205       204       207       209
       205       204       207       210       206       204       207       208
       206       204       207       209       206       204       207       210
       207       210       213       214       207       210       213       215
       207       210       213       216       208       207       210       211
       208       207       210       212       208       207       210       213
       209       207       210       211       209       207       210       212
       209       207       210       213       210       213       216       217
       210       213       216       218       210       213       216       219
       211       210       213       214       211       210       213       215
       211       210       213       216       212       210       213       214
       212       210       213       215       212       210       213       216
       213       216       219       220       213       216       219       221
       213       216       219       222       214       213       216       217
       214       213       216       218       214       213       216       219
       215       213       216       217       215       213       216       218
       215       213       216       219       216       219       222       223
       216       219       222       224       216       219       222       225
       217       216       219       220       217       216       219       221
       217       216       219       222       218       216       219       220
       218       216       219       221       218       216       219       222
       220       219       222       223       220       219       222       224
       220       219       222       225       221       219       222       223
       221       219       222       224       221       219       222       225
       226       229       232       233       226       229       232       234
       226       229       232       235       227       226       229       230
       227       226       229       231       227       226       229       232
       228       226       229       230       228       226       229       231
       228       226       229       232       229       232       235       236
       229       232       235       237       229       232       235       238
       230       229       232       233       230       229       232       234
       230       229       232       235       231       229       232       233
       231       229       232       234       231       229       232       235
       232       235       238       239       232       235       238       240
       232       235       238       241       233       232       235       236
       233       232       235       237       233       232       235       238
       234       232       235       236       234       232       235       237
       234       232       235       238       235       238       241       242
       235       238       241       243       235       238       241       244
       236       235       238       239       236       235       238       240
       236       235       238       241       237       235       238       239
       237       235       238       240       237       235       238       241
       238       241       244       245       238       241       244       246
       238       241       244       247       239       238       241       242
       239       238       241       243       239       238       241       244
       240       238       241       242       240       238       241       243
       240       238       241       244       241       244       247       248
       241       244       247       249       241       244       247       250
       242       241       244       245       242       241       244       246
       242       241       244       247       243       241       244       245
       243       241       244       246       243       241       244       247
       244       247       250       251       244       247       250       252
       244       247       250       253       245       244       247       248
       245       244       247       249       245       244       247       250
       246       244       247       248       246       244       247       249
       246       244       247       250       247       250       253       254
       247       250       253       255       247       250       253       256
       248       247       250       251       248       247       250       252
       248       247       250       253       249       247       250       251
       249       247       250       252       249       247       250       253
       250       253       256       257       250       253       256       258
       250       253       256       259       251       250       253       254
       251       250       253       255       251       250       253       256
       252       250       253       254       252       250       253       255
       252       250       253       256       253       256       259       260
       253       256       259       261       253       256       259       262
       254       253       256       257       254       253       256       258
       254       253       256       259       255       253       256       257
       255       253       256       258       255       253       256       259
       256       259       262       263       256       259       262       264
       256       259       262       265       257       256       259       260
       257       256       259       261       257       256       259       262
       258       256       259       260       258       256       259       261
       258       256       259       262       259       262       265       266
       259       262       265       267       259       262       265       268
       260       259       262       263       260       259       262       264
       260       259       262       265       261       259       262       263
       261       259       262       264       261       259       262       265
       263       262       265       266       263       262       265       267
       263       262       265       268       264       262       265       266
       264       262       265       267       264       262       265       268
       269       270       285       286       269       270       285       287
       269       270       285       291       270       269       273       274
       270       269       273       275       270       269       273       276
       270       269       277       278       270       269       277       279
       270       269       277       280       270       269       281       282
       270       269       281       283       270       269       281       284
       270       285       291       288       271       270       269       273
       271       270       269       277       271       270       269       281
       271       270       285       286       271       270       285       287
       271       270       285       291       272       270       269       273
       272       270       269       277       272       270       269       281
       272       270       285       286       272       270       285       287
       272       270       285       291       273       269       270       285
       273       269       277       278       273       269       277       279
       273       269       277       280       273       269       281       282
       273       269       281       283       273       269       281       284
       274       273       269       277       274       273       269       281
       275       273       269       277       275       273       269       281
       276       273       269       277       276       273       269       281
       277       269       270       285       277       269       281       282
       277       269       281       283       277       269       281       284
       278       277       269       281       279       277       269       281
       280       277       269       281       281       269       270       285
       285       291       288       289       285       291       288       290
       285       291       288       292       286       285       291       288
       287       285       291       288       288       292       293       294
       288       292       293       295       288       292       293       296
       289       288       292       293       290       288       292       293
       291       288       292       293       292       293       296       297
       292       293       296       298       292       293       296       304
       293       296       298       299       293       296       304       305
       293       296       304       306       293       296       304       307
       294       293       296       297       294       293       296       298
       294       293       296       304       295       293       296       297
       295       293       296       298       295       293       296       304
       296       298       299       300       296       298       299       301
       296       304       307       308       297       296       298       299
       297       296       304       305       297       296       304       306
       297       296       304       307       298       296       304       305
       298       296       304       306       298       296       304       307
       298       299       301       302       298       299       301       303
       298       299       301       313       299       298       296       304
       299       301       313       314       299       301       313       315
       299       301       313       316       300       299       301       302
       300       299       301       303       300       299       301       313
       301       313       316       317       301       313       316       318
       301       313       316       319       302       301       313       314
       302       301       313       315       302       301       313       316
       303       301       313       314       303       301       313       315
       303       301       313       316       304       307       308       309
       304       307       308       310       305       304       307       308
       306       304       307       308       307       308       310       311
       307       308       310       312       307       308       310       360
       308       310       360       361       308       310       360       362
       308       310       360       363       309       308       310       311
       309       308       310       312       309       308       310       360
       310       360       363       364       310       360       363       365
       310       360       363       366       311       310       360       361
       311       310       360       362       311       310       360       363
       312       310       360       361       312       310       360       362
       312       310       360       363       313       316       319       320
       313       316       319       321       313       316       319       322
       314       313       316       317       314       313       316       318
       314       313       316       319       315       313       316       317
       315       313       316       318       315       313       316       319
       316       319       322       323       316       319       322       324
       316       319       322       325       317       316       319       320
       317       316       319       321       317       316       319       322
       318       316       319       320       318       316       319       321
       318       316       319       322       319       322       325       326
       319       322       325       327       319       322       325       328
       320       319       322       323       320       319       322       324
       320       319       322       325       321       319       322       323
       321       319       322       324       321       319       322       325
       322       325       328       329       322       325       328       330
       322       325       328       331       323       322       325       326
       323       322       325       327       323       322       325       328
       324       322       325       326       324       322       325       327
       324       322       325       328       325       328       331       332
       325       328       331       333       326       325       328       329
       326       325       328       330       326       325       328       331
       327       325       328       329       327       325       328       330
       327       325       328       331       328       331       333       334
       328       331       333       335       329       328       331       332
       329       328       331       333       330       328       331       332
       330       328       331       333       331       333       335       336
       331       333       335       337       331       333       335       338
       332       331       333       334       332       331       333       335
       333       335       338       339       333       335       338       340
       333       335       338       341       334       333       335       336
       334       333       335       337       334       333       335       338
       335       338       341       342       335       338       341       343
       335       338       341       344       336       335       338       339
       336       335       338       340       336       335       338       341
       337       335       338       339       337       335       338       340
       337       335       338       341       338       341       344       345
       338       341       344       346       338       341       344       347
       339       338       341       342       339       338       341       343
       339       338       341       344       340       338       341       342
       340       338       341       343       340       338       341       344
       341       344       347       348       341       344       347       349
       341       344       347       350       342       341       344       345
       342       341       344       346       342       341       344       347
       343       341       344       345       343       341       344       346
       343       341       344       347       344       347       350       351
       344       347       350       352       344       347       350       353
       345       344       347       348       345       344       347       349
       345       344       347       350       346       344       347       348
       346       344       347       349       346       344       347       350
       347       350       353       354       347       350       353       355
       347       350       353       356       348       347       350       351
       348       347       350       352       348       347       350       353
       349       347       350       351       349       347       350       352
       349       347       350       353       350       353       356       357
       350       353       356       358       350       353       356       359
       351       350       353       354       351       350       353       355
       351       350       353       356       352       350       353       354
       352       350       353       355       352       350       353       356
       354       353       356       357       354       353       356       358
       354       353       356       359       355       353       356       357
       355       353       356       358       355       353       356       359
       360       363       366       367       360       363       366       368
       360       363       366       369       361       360       363       364
       361       360       363       365       361       360       363       366
       362       360       363       364       362       360       363       365
       362       360       363       366       363       366       369       370
       363       366       369       371       363       366       369       372
       364       363       366       367       364       363       366       368
       364       363       366       369       365       363       366       367
       365       363       366       368       365       363       366       369
       366       369       372       373       366       369       372       374
       366       369       372       375       367       366       369       370
       367       366       369       371       367       366       369       372
       368       366       369       370       368       366       369       371
       368       366       369       372       369       372       375       376
       369       372       375       377       369       372       375       378
       370       369       372       373       370       369       372       374
       370       369       372       375       371       369       372       373
       371       369       372       374       371       369       372       375
       372       375       378       379       372       375       378       380
       372       375       378       381       373       372       375       376
       373       372       375       377       373       372       375       378
       374       372       375       376       374       372       375       377
       374       372       375       378       375       378       381       382
       375       378       381       383       375       378       381       384
       376       375       378       379       376       375       378       380
       376       375       378       381       377       375       378       379
       377       375       378       380       377       375       378       381
       378       381       384       385       378       381       384       386
       378       381       384       387       379       378       381       382
       379       378       381       383       379       378       381       384
       380       378       381       382       380       378       381       383
       380       378       381       384       381       384       387       388
       381       384       387       389       381       384       387       390
       382       381       384       385       382       381       384       386
       382       381       384       387       383       381       384       385
       383       381       384       386       383       381       384       387
       384       387       390       391       384       387       390       392
       384       387       390       393       385       384       387       388
       385       384       387       389       385       384       387       390
       386       384       387       388       386       384       387       389
       386       384       387       390       387       390       393       394
       387       390       393       395       387       390       393       396
       388       387       390       391       388       387       390       392
       388       387       390       393       389       387       390       391
       389       387       390       392       389       387       390       393
       390       393       396       397       390       393       396       398
       390       393       396       399       391       390       393       394
       391       390       393       395       391       390       393       396
       392       390       393       394       392       390       393       395
       392       390       393       396       393       396       399       400
       393       396       399       401       393       396       399       402
       394       393       396       397       394       393       396       398
       394       393       396       399       395       393       396       397
       395       393       396       398       395       393       396       399
       397       396       399       400       397       396       399       401
       397       396       399       402       398       396       399       400
       398       396       399       401       398       396       399       402
       403       404       419       420       403       404       419       421
       403       404       419       425       404       403       407       408
       404       403       407       409       404       403       407       410
       404       403       411       412       404       403       411       413
       404       403       411       414       404       403       415       416
       404       403       415       417       404       403       415       418
       404       419       425       422       405       404       403       407
       405       404       403       411       405       404       403       415
       405       404       419       420       405       404       419       421
       405       404       419       425       406       404       403       407
       406       404       403       411       406       404       403       415
       406       404       419       420       406       404       419       421
       406       404       419       425       407       403       404       419
       407       403       411       412       407       403       411       413
       407       403       411       414       407       403       415       416
       407       403       415       417       407       403       415       418
       408       407       403       411       408       407       403       415
       409       407       403       411       409       407       403       415
       410       407       403       411       410       407       403       415
       411       403       404       419       411       403       415       416
       411       403       415       417       411       403       415       418
       412       411       403       415       413       411       403       415
       414       411       403       415       415       403       404       419
       419       425       422       423       419       425       422       424
       419       425       422       426       420       419       425       422
       421       419       425       422       422       426       427       428
       422       426       427       429       422       426       427       430
       423       422       426       427       424       422       426       427
       425       422       426       427       426       427       430       431
       426       427       430       432       426       427       430       438
       427       430       432       433       427       430       438       439
       427       430       438       440       427       430       438       441
       428       427       430       431       428       427       430       432
       428       427       430       438       429       427       430       431
       429       427       430       432       429       427       430       438
       430       432       433       434       430       432       433       435
       430       438       441       442       431       430       432       433
       431       430       438       439       431       430       438       440
       431       430       438       441       432       430       438       439
       432       430       438       440       432       430       438       441
       432       433       435       436       432       433       435       437
       432       433       435       447       433       432       430       438
       433       435       447       448       433       435       447       449
       433       435       447       450       434       433       435       436
       434       433       435       437       434       433       435       447
       435       447       450       451       435       447       450       452
       435       447       450       453       436       435       447       448
       436       435       447       449       436       435       447       450
       437       435       447       448       437       435       447       449
       437       435       447       450       438       441       442       443
       438       441       442       444       439       438       441       442
       440       438       441       442       441       442       444       445
       441       442       444       446       441       442       444       494
       442       444       494       495       442       444       494       496
       442       444       494       497       443       442       444       445
       443       442       444       446       443       442       444       494
       444       494       497       498       444       494       497       499
       444       494       497       500       445       444       494       495
       445       444       494       496       445       444       494       497
       446       444       494       495       446       444       494       496
       446       444       494       497       447       450       453       454
       447       450       453       455       447       450       453       456
       448       447       450       451       448       447       450       452
       448       447       450       453       449       447       450       451
       449       447       450       452       449       447       450       453
       450       453       456       457       450       453       456       458
       450       453       456       459       451       450       453       454
       451       450       453       455       451       450       453       456
       452       450       453       454       452       450       453       455
       452       450       453       456       453       456       459       460
       453       456       459       461       453       456       459       462
       454       453       456       457       454       453       456       458
       454       453       456       459       455       453       456       457
       455       453       456       458       455       453       456       459
       456       459       462       463       456       459       462       464
       456       459       462       465       457       456       459       460
       457       456       459       461       457       456       459       462
       458       456       459       460       458       456       459       461
       458       456       459       462       459       462       465       466
       459       462       465       467       460       459       462       463
       460       459       462       464       460       459       462       465
       461       459       462       463       461       459       462       464
       461       459       462       465       462       465       467       468
       462       465       467       469       463       462       465       466
       463       462       465       467       464       462       465       466
       464       462       465       467       465       467       469       470
       465       467       469       471       465       467       469       472
       466       465       467       468       466       465       467       469
       467       469       472       473       467       469       472       474
       467       469       472       475       468       467       469       470
       468       467       469       471       468       467       469       472
       469       472       475       476       469       472       475       477
       469       472       475       478       470       469       472       473
       470       469       472       474       470       469       472       475
       471       469       472       473       471       469       472       474
       471       469       472       475       472       475       478       479
       472       475       478       480       472       475       478       481
       473       472       475       476       473       472       475       477
       473       472       475       478       474       472       475       476
       474       472       475       477       474       472       475       478
       475       478       481       482       475       478       481       483
       475       478       481       484       476       475       478       479
       476       475       478       480       476       475       478       481
       477       475       478       479       477       475       478       480
       477       475       478       481       478       481       484       485
       478       481       484       486       478       481       484       487
       479       478       481       482       479       478       481       483
       479       478       481       484       480       478       481       482
       480       478       481       483       480       478       481       484
       481       484       487       488       481       484       487       489
       481       484       487       490       482       481       484       485
       482       481       484       486       482       481       484       487
       483       481       484       485       483       481       484       486
       483       481       484       487       484       487       490       491
       484       487       490       492       484       487       490       493
       485       484       487       488       485       484       487       489
       485       484       487       490       486       484       487       488
       486       484       487       489       486       484       487       490
       488       487       490       491       488       487       490       492
       488       487       490       493       489       487       490       491
       489       487       490       492       489       487       490       493
       494       497       500       501       494       497       500       502
       494       497       500       503       495       494       497       498
       495       494       497       499       495       494       497       500
       496       494       497       498       496       494       497       499
       496       494       497       500       497       500       503       504
       497       500       503       505       497       500       503       506
       498       497       500       501       498       497       500       502
       498       497       500       503       499       497       500       501
       499       497       500       502       499       497       500       503
       500       503       506       507       500       503       506       508
       500       503       506       509       501       500       503       504
       501       500       503       505       501       500       503       506
       502       500       503       504       502       500       503       505
       502       500       503       506       503       506       509       510
       503       506       509       511       503       506       509       512
       504       503       506       507       504       503       506       508
       504       503       506       509       505       503       506       507
       505       503       506       508       505       503       506       509
       506       509       512       513       506       509       512       514
       506       509       512       515       507       506       509       510
       507       506       509       511       507       506       509       512
       508       506       509       510       508       506       509       511
       508       506       509       512       509       512       515       516
       509       512       515       517       509       512       515       518
       510       509       512       513       510       509       512       514
       510       509       512       515       511       509       512       513
       511       509       512       514       511       509       512       515
       512       515       518       519       512       515       518       520
       512       515       518       521       513       512       515       516
       513       512       515       517       513       512       515       518
       514       512       515       516       514       512       515       517
       514       512       515       518       515       518       521       522
       515       518       521       523       515       518       521       524
       516       515       518       519       516       515       518       520
       516       515       518       521       517       515       518       519
       517       515       518       520       517       515       518       521
       518       521       524       525       518       521       524       526
       518       521       524       527       519       518       521       522
       519       518       521       523       519       518       521       524
       520       518       521       522       520       518       521       523
       520       518       521       524       521       524       527       528
       521       524       527       529       521       524       527       530
       522       521       524       525       522       521       524       526
       522       521       524       527       523       521       524       525
       523       521       524       526       523       521       524       527
       524       527       530       531       524       527       530       532
       524       527       530       533       525       524       527       528
       525       524       527       529       525       524       527       530
       526       524       527       528       526       524       527       529
       526       524       527       530       527       530       533       534
       527       530       533       535       527       530       533       536
       528       527       530       531       528       527       530       532
       528       527       530       533       529       527       530       531
       529       527       530       532       529       527       530       533
       531       530       533       534       531       530       533       535
       531       530       533       536       532       530       533       534
       532       530       533       535       532       530       533       536
       537       538       553       554       537       538       553       555
       537       538       553       559       538       537       541       542
       538       537       541       543       538       537       541       544
       538       537       545       546       538       537       545       547
       538       537       545       548       538       537       549       550
       538       537       549       551       538       537       549       552
       538       553       559       556       539       538       537       541
       539       538       537       545       539       538       537       549
       539       538       553       554       539       538       553       555
       539       538       553       559       540       538       537       541
       540       538       537       545       540       538       537       549
       540       538       553       554       540       538       553       555
       540       538       553       559       541       537       538       553
       541       537       545       546       541       537       545       547
       541       537       545       548       541       537       549       550
       541       537       549       551       541       537       549       552
       542       541       537       545       542       541       537       549
       543       541       537       545       543       541       537       549
       544       541       537       545       544       541       537       549
       545       537       538       553       545       537       549       550
       545       537       549       551       545       537       549       552
       546       545       537       549       547       545       537       549
       548       545       537       549       549       537       538       553
       553       559       556       557       553       559       556       558
       553       559       556       560       554       553       559       556
       555       553       559       556       556       560       561       562
       556       560       561       563       556       560       561       564
       557       556       560       561       558       556       560       561
       559       556       560       561       560       561       564       565
       560       561       564       566       560       561       564       572
       561       564       566       567       561       564       572       573
       561       564       572       574       561       564       572       575
       562       561       564       565       562       561       564       566
       562       561       564       572       563       561       564       565
       563       561       564       566       563       561       564       572
       564       566       567       568       564       566       567       569
       564       572       575       576       565       564       566       567
       565       564       572       573       565       564       572       574
       565       564       572       575       566       564       572       573
       566       564       572       574       566       564       572       575
       566       567       569       570       566       567       569       571
       566       567       569       581       567       566       564       572
       567       569       581       582       567       569       581       583
       567       569       581       584       568       567       569       570
       568       567       569       571       568       567       569       581
       569       581       584       585       569       581       584       586
       569       581       584       587       570       569       581       582
       570       569       581       583       570       569       581       584
       571       569       581       582       571       569       581       583
       571       569       581       584       572       575       576       577
       572       575       576       578       573       572       575       576
       574       572       575       576       575       576       578       579
       575       576       578       580       575       576       578       628
       576       578       628       629       576       578       628       630
       576       578       628       631       577       576       578       579
       577       576       578       580       577       576       578       628
       578       628       631       632       578       628       631       633
       578       628       631       634       579       578       628       629
       579       578       628       630       579       578       628       631
       580       578       628       629       580       578       628       630
       580       578       628       631       581       584       587       588
       581       584       587       589       581       584       587       590
       582       581       584       585       582       581       584       586
       582       581       584       587       583       581       584       585
       583       581       584       586       583       581       584       587
       584       587       590       591       584       587       590       592
       584       587       590       593       585       584       587       588
       585       584       587       589       585       584       587       590
       586       584       587       588       586       584       587       589
       586       584       587       590       587       590       593       594
       587       590       593       595       587       590       593       596
       588       587       590       591       588       587       590       592
       588       587       590       593       589       587       590       591
       589       587       590       592       589       587       590       593
       590       593       596       597       590       593       596       598
       590       593       596       599       591       590       593       594
       591       590       593       595       591       590       593       596
       592       590       593       594       592       590       593       595
       592       590       593       596       593       596       599       600
       593       596       599       601       594       593       596       597
       594       593       596       598       594       593       596       599
       595       593       596       597       595       593       596       598
       595       593       596       599       596       599       601       602
       596       599       601       603       597       596       599       600
       597       596       599       601       598       596       599       600
       598       596       599       601       599       601       603       604
       599       601       603       605       599       601       603       606
       600       599       601       602       600       599       601       603
       601       603       606       607       601       603       606       608
       601       603       606       609       602       601       603       604
       602       601       603       605       602       601       603       606
       603       606       609       610       603       606       609       611
       603       606       609       612       604       603       606       607
       604       603       606       608       604       603       606       609
       605       603       606       607       605       603       606       608
       605       603       606       609       606       609       612       613
       606       609       612       614       606       609       612       615
       607       606       609       610       607       606       609       611
       607       606       609       612       608       606       609       610
       608       606       609       611       608       606       609       612
       609       612       615       616       609       612       615       617
       609       612       615       618       610       609       612       613
       610       609       612       614       610       609       612       615
       611       609       612       613       611       609       612       614
       611       609       612       615       612       615       618       619
       612       615       618       620       612       615       618       621
       613       612       615       616       613       612       615       617
       613       612       615       618       614       612       615       616
       614       612       615       617       614       612       615       618
       615       618       621       622       615       618       621       623
       615       618       621       624       616       615       618       619
       616       615       618       620       616       615       618       621
       617       615       618       619       617       615       618       620
       617       615       618       621       618       621       624       625
       618       621       624       626       618       621       624       627
       619       618       621       622       619       618       621       623
       619       618       621       624       620       618       621       622
       620       618       621       623       620       618       621       624
       622       621       624       625       622       621       624       626
       622       621       624       627       623       621       624       625
       623       621       624       626       623       621       624       627
       628       631       634       635       628       631       634       636
       628       631       634       637       629       628       631       632
       629       628       631       633       629       628       631       634
       630       628       631       632       630       628       631       633
       630       628       631       634       631       634       637       638
       631       634       637       639       631       634       637       640
       632       631       634       635       632       631       634       636
       632       631       634       637       633       631       634       635
       633       631       634       636       633       631       634       637
       634       637       640       641       634       637       640       642
       634       637       640       643       635       634       637       638
       635       634       637       639       635       634       637       640
       636       634       637       638       636       634       637       639
       636       634       637       640       637       640       643       644
       637       640       643       645       637       640       643       646
       638       637       640       641       638       637       640       642
       638       637       640       643       639       637       640       641
       639       637       640       642       639       637       640       643
       640       643       646       647       640       643       646       648
       640       643       646       649       641       640       643       644
       641       640       643       645       641       640       643       646
       642       640       643       644       642       640       643       645
       642       640       643       646       643       646       649       650
       643       646       649       651       643       646       649       652
       644       643       646       647       644       643       646       648
       644       643       646       649       645       643       646       647
       645       643       646       648       645       643       646       649
       646       649       652       653       646       649       652       654
       646       649       652       655       647       646       649       650
       647       646       649       651       647       646       649       652
       648       646       649       650       648       646       649       651
       648       646       649       652       649       652       655       656
       649       652       655       657       649       652       655       658
       650       649       652       653       650       649       652       654
       650       649       652       655       651       649       652       653
       651       649       652       654       651       649       652       655
       652       655       658       659       652       655       658       660
       652       655       658       661       653       652       655       656
       653       652       655       657       653       652       655       658
       654       652       655       656       654       652       655       657
       654       652       655       658       655       658       661       662
       655       658       661       663       655       658       661       664
       656       655       658       659       656       655       658       660
       656       655       658       661       657       655       658       659
       657       655       658       660       657       655       658       661
       658       661       664       665       658       661       664       666
       658       661       664       667       659       658       661       662
       659       658       661       663       659       658       661       664
       660       658       661       662       660       658       661       663
       660       658       661       664       661       664       667       668
       661       664       667       669       661       664       667       670
       662       661       664       665       662       661       664       666
       662       661       664       667       663       661       664       665
       663       661       664       666       663       661       664       667
       665       664       667       668       665       664       667       669
       665       664       667       670       666       664       667       668
       666       664       667       669       666       664       667       670
       671       672       687       688       671       672       687       689
       671       672       687       693       672       671       675       676
       672       671       675       677       672       671       675       678
       672       671       679       680       672       671       679       681
       672       671       679       682       672       671       683       684
       672       671       683       685       672       671       683       686
       672       687       693       690       673       672       671       675
       673       672       671       679       673       672       671       683
       673       672       687       688       673       672       687       689
       673       672       687       693       674       672       671       675
       674       672       671       679       674       672       671       683
       674       672       687       688       674       672       687       689
       674       672       687       693       675       671       672       687
       675       671       679       680       675       671       679       681
       675       671       679       682       675       671       683       684
       675       671       683       685       675       671       683       686
       676       675       671       679       676       675       671       683
       677       675       671       679       677       675       671       683
       678       675       671       679       678       675       671       683
       679       671       672       687       679       671       683       684
       679       671       683       685       679       671       683       686
       680       679       671       683       681       679       671       683
       682       679       671       683       683       671       672       687
       687       693       690       691       687       693       690       692
       687       693       690       694       688       687       693       690
       689       687       693       690       690       694       695       696
       690       694       695       697       690       694       695       698
       691       690       694       695       692       690       694       695
       693       690       694       695       694       695       698       699
       694       695       698       700       694       695       698       706
       695       698       700       701       695       698       706       707
       695       698       706       708       695       698       706       709
       696       695       698       699       696       695       698       700
       696       695       698       706       697       695       698       699
       697       695       698       700       697       695       698       706
       698       700       701       702       698       700       701       703
       698       706       709       710       699       698       700       701
       699       698       706       707       699       698       706       708
       699       698       706       709       700       698       706       707
       700       698       706       708       700       698       706       709
       700       701       703       704       700       701       703       705
       700       701       703       715       701       700       698       706
       701       703       715       716       701       703       715       717
       701       703       715       718       702       701       703       704
       702       701       703       705       702       701       703       715
       703       715       718       719       703       715       718       720
       703       715       718       721       704       703       715       716
       704       703       715       717       704       703       715       718
       705       703       715       716       705       703       715       717
       705       703       715       718       706       709       710       711
       706       709       710       712       707       706       709       710
       708       706       709       710       709       710       712       713
       709       710       712       714       709       710       712       762
       710       712       762       763       710       712       762       764
       710       712       762       765       711       710       712       713
       711       710       712       714       711       710       712       762
       712       762       765       766       712       762       765       767
       712       762       765       768       713       712       762       763
       713       712       762       764       713       712       762       765
       714       712       762       763       714       712       762       764
       714       712       762       765       715       718       721       722
       715       718       721       723       715       718       721       724
       716       715       718       719       716       715       718       720
       716       715       718       721       717       715       718       719
       717       715       718       720       717       715       718       721
       718       721       724       725       718       721       724       726
       718       721       724       727       719       718       721       722
       719       718       721       723       719       718       721       724
       720       718       721       722       720       718       721       723
       720       718       721       724       721       724       727       728
       721       724       727       729       721       724       727       730
       722       721       724       725       722       721       724       726
       722       721       724       727       723       721       724       725
       723       721       724       726       723       721       724       727
       724       727       730       731       724       727       730       732
       724       727       730       733       725       724       727       728
       725       724       727       729       725       724       727       730
       726       724       727       728       726       724       727       729
       726       724       727       730       727       730       733       734
       727       730       733       735       728       727       730       731
       728       727       730       732       728       727       730       733
       729       727       730       731       729       727       730       732
       729       727       730       733       730       733       735       736
       730       733       735       737       731       730       733       734
       731       730       733       735       732       730       733       734
       732       730       733       735       733       735       737       738
       733       735       737       739       733       735       737       740
       734       733       735       736       734       733       735       737
       735       737       740       741       735       737       740       742
       735       737       740       743       736       735       737       738
       736       735       737       739       736       735       737       740
       737       740       743       744       737       740       743       745
       737       740       743       746       738       737       740       741
       738       737       740       742       738       737       740       743
       739       737       740       741       739       737       740       742
       739       737       740       743       740       743       746       747
       740       743       746       748       740       743       746       749
       741       740       743       744       741       740       743       745
       741       740       743       746       742       740       743       744
       742       740       743       745       742       740       743       746
       743       746       749       750       743       746       749       751
       743       746       749       752       744       743       746       747
       744       743       746       748       744       743       746       749
       745       743       746       747       745       743       746       748
       745       743       746       749       746       749       752       753
       746       749       752       754       746       749       752       755
       747       746       749       750       747       746       749       751
       747       746       749       752       748       746       749       750
       748       746       749       751       748       746       749       752
       749       752       755       756       749       752       755       757
       749       752       755       758       750       749       752       753
       750       749       752       754       750       749       752       755
       751       749       752       753       751       749       752       754
       751       749       752       755       752       755       758       759
       752       755       758       760       752       755       758       761
       753       752       755       756       753       752       755       757
       753       752       755       758       754       752       755       756
       754       752       755       757       754       752       755       758
       756       755       758       759       756       755       758       760
       756       755       758       761       757       755       758       759
       757       755       758       760       757       755       758       761
       762       765       768       769       762       765       768       770
       762       765       768       771       763       762       765       766
       763       762       765       767       763       762       765       768
       764       762       765       766       764       762       765       767
       764       762       765       768       765       768       771       772
       765       768       771       773       765       768       771       774
       766       765       768       769       766       765       768       770
       766       765       768       771       767       765       768       769
       767       765       768       770       767       765       768       771
       768       771       774       775       768       771       774       776
       768       771       774       777       769       768       771       772
       769       768       771       773       769       768       771       774
       770       768       771       772       770       768       771       773
       770       768       771       774       771       774       777       778
       771       774       777       779       771       774       777       780
       772       771       774       775       772       771       774       776
       772       771       774       777       773       771       774       775
       773       771       774       776       773       771       774       777
       774       777       780       781       774       777       780       782
       774       777       780       783       775       774       777       778
       775       774       777       779       775       774       777       780
       776       774       777       778       776       774       777       779
       776       774       777       780       777       780       783       784
       777       780       783       785       777       780       783       786
       778       777       780       781       778       777       780       782
       778       777       780       783       779       777       780       781
       779       777       780       782       779       777       780       783
       780       783       786       787       780       783       786       788
       780       783       786       789       781       780       783       784
       781       780       783       785       781       780       783       786
       782       780       783       784       782       780       783       785
       782       780       783       786       783       786       789       790
       783       786       789       791       783       786       789       792
       784       783       786       787       784       783       786       788
       784       783       786       789       785       783       786       787
       785       783       786       788       785       783       786       789
       786       789       792       793       786       789       792       794
       786       789       792       795       787       786       789       790
       787       786       789       791       787       786       789       792
       788       786       789       790       788       786       789       791
       788       786       789       792       789       792       795       796
       789       792       795       797       789       792       795       798
       790       789       792       793       790       789       792       794
       790       789       792       795       791       789       792       793
       791       789       792       794       791       789       792       795
       792       795       798       799       792       795       798       800
       792       795       798       801       793       792       795       796
       793       792       795       797       793       792       795       798
       794       792       795       796       794       792       795       797
       794       792       795       798       795       798       801       802
       795       798       801       803       795       798       801       804
       796       795       798       799       796       795       798       800
       796       795       798       801       797       795       798       799
       797       795       798       800       797       795       798       801
       799       798       801       802       799       798       801       803
       799       798       801       804       800       798       801       802
       800       798       801       803       800       798       801       804
       805       806       821       822       805       806       821       823
       805       806       821       827       806       805       809       810
       806       805       809       811       806       805       809       812
       806       805       813       814       806       805       813       815
       806       805       813       816       806       805       817       818
       806       805       817       819       806       805       817       820
       806       821       827       824       807       806       805       809
       807       806       805       813       807       806       805       817
       807       806       821       822       807       806       821       823
       807       806       821       827       808       806       805       809
       808       806       805       813       808       806       805       817
       808       806       821       822       808       806       821       823
       808       806       821       827       809       805       806       821
       809       805       813       814       809       805       813       815
       809       805       813       816       809       805       817       818
       809       805       817       819       809       805       817       820
       810       809       805       813       810       809       805       817
       811       809       805       813       811       809       805       817
       812       809       805       813       812       809       805       817
       813       805       806       821       813       805       817       818
       813       805       817       819       813       805       817       820
       814       813       805       817       815       813       805       817
       816       813       805       817       817       805       806       821
       821       827       824       825       821       827       824       826
       821       827       824       828       822       821       827       824
       823       821       827       824       824       828       829       830
       824       828       829       831       824       828       829       832
       825       824       828       829       826       824       828       829
       827       824       828       829       828       829       832       833
       828       829       832       834       828       829       832       840
       829       832       834       835       829       832       840       841
       829       832       840       842       829       832       840       843
       830       829       832       833       830       829       832       834
       830       829       832       840       831       829       832       833
       831       829       832       834       831       829       832       840
       832       834       835       836       832       834       835       837
       832       840       843       844       833       832       834       835
       833       832       840       841       833       832       840       842
       833       832       840       843       834       832       840       841
       834       832       840       842       834       832       840       843
       834       835       837       838       834       835       837       839
       834       835       837       849       835       834       832       840
       835       837       849       850       835       837       849       851
       835       837       849       852       836       835       837       838
       836       835       837       839       836       835       837       849
       837       849       852       853       837       849       852       854
       837       849       852       855       838       837       849       850
       838       837       849       851       838       837       849       852
       839       837       849       850       839       837       849       851
       839       837       849       852       840       843       844       845
       840       843       844       846       841       840       843       844
       842       840       843       844       843       844       846       847
       843       844       846       848       843       844       846       896
       844       846       896       897       844       846       896       898
       844       846       896       899       845       844       846       847
       845       844       846       848       845       844       846       896
       846       896       899       900       846       896       899       901
       846       896       899       902       847       846       896       897
       847       846       896       898       847       846       896       899
       848       846       896       897       848       846       896       898
       848       846       896       899       849       852       855       856
       849       852       855       857       849       852       855       858
       850       849       852       853       850       849       852       854
       850       849       852       855       851       849       852       853
       851       849       852       854       851       849       852       855
       852       855       858       859       852       855       858       860
       852       855       858       861       853       852       855       856
       853       852       855       857       853       852       855       858
       854       852       855       856       854       852       855       857
       854       852       855       858       855       858       861       862
       855       858       861       863       855       858       861       864
       856       855       858       859       856       855       858       860
       856       855       858       861       857       855       858       859
       857       855       858       860       857       855       858       861
       858       861       864       865       858       861       864       866
       858       861       864       867       859       858       861       862
       859       858       861       863       859       858       861       864
       860       858       861       862       860       858       861       863
       860       858       861       864       861       864       867       868
       861       864       867       869       862       861       864       865
       862       861       864       866       862       861       864       867
       863       861       864       865       863       861       864       866
       863       861       864       867       864       867       869       870
       864       867       869       871       865       864       867       868
       865       864       867       869       866       864       867       868
       866       864       867       869       867       869       871       872
       867       869       871       873       867       869       871       874
       868       867       869       870       868       867       869       871
       869       871       874       875       869       871       874       876
       869       871       874       877       870       869       871       872
       870       869       871       873       870       869       871       874
       871       874       877       878       871       874       877       879
       871       874       877       880       872       871       874       875
       872       871       874       876       872       871       874       877
       873       871       874       875       873       871       874       876
       873       871       874       877       874       877       880       881
       874       877       880       882       874       877       880       883
       875       874       877       878       875       874       877       879
       875       874       877       880       876       874       877       878
       876       874       877       879       876       874       877       880
       877       880       883       884       877       880       883       885
       877       880       883       886       878       877       880       881
       878       877       880       882       878       877       880       883
       879       877       880       881       879       877       880       882
       879       877       880       883       880       883       886       887
       880       883       886       888       880       883       886       889
       881       880       883       884       881       880       883       885
       881       880       883       886       882       880       883       884
       882       880       883       885       882       880       883       886
       883       886       889       890       883       886       889       891
       883       886       889       892       884       883       886       887
       884       883       886       888       884       883       886       889
       885       883       886       887       885       883       886       888
       885       883       886       889       886       889       892       893
       886       889       892       894       886       889       892       895
       887       886       889       890       887       886       889       891
       887       886       889       892       888       886       889       890
       888       886       889       891       888       886       889       892
       890       889       892       893       890       889       892       894
       890       889       892       895       891       889       892       893
       891       889       892       894       891       889       892       895
       896       899       902       903       896       899       902       904
       896       899       902       905       897       896       899       900
       897       896       899       901       897       896       899       902
       898       896       899       900       898       896       899       901
       898       896       899       902       899       902       905       906
       899       902       905       907       899       902       905       908
       900       899       902       903       900       899       902       904
       900       899       902       905       901       899       902       903
       901       899       902       904       901       899       902       905
       902       905       908       909       902       905       908       910
       902       905       908       911       903       902       905       906
       903       902       905       907       903       902       905       908
       904       902       905       906       904       902       905       907
       904       902       905       908       905       908       911       912
       905       908       911       913       905       908       911       914
       906       905       908       909       906       905       908       910
       906       905       908       911       907       905       908       909
       907       905       908       910       907       905       908       911
       908       911       914       915       908       911       914       916
       908       911       914       917       909       908       911       912
       909       908       911       913       909       908       911       914
       910       908       911       912       910       908       911       913
       910       908       911       914       911       914       917       918
       911       914       917       919       911       914       917       920
       912       911       914       915       912       911       914       916
       912       911       914       917       913       911       914       915
       913       911       914       916       913       911       914       917
       914       917       920       921       914       917       920       922
       914       917       920       923       915       914       917       918
       915       914       917       919       915       914       917       920
       916       914       917       918       916       914       917       919
       916       914       917       920       917       920       923       924
       917       920       923       925       917       920       923       926
       918       917       920       921       918       917       920       922
       918       917       920       923       919       917       920       921
       919       917       920       922       919       917       920       923
       920       923       926       927       920       923       926       928
       920       923       926       929       921       920       923       924
       921       920       923       925       921       920       923       926
       922       920       923       924       922       920       923       925
       922       920       923       926       923       926       929       930
       923       926       929       931       923       926       929       932
       924       923       926       927       924       923       926       928
       924       923       926       929       925       923       926       927
       925       923       926       928       925       923       926       929
       926       929       932       933       926       929       932       934
       926       929       932       935       927       926       929       930
       927       926       929       931       927       926       929       932
       928       926       929       930       928       926       929       931
       928       926       929       932       929       932       935       936
       929       932       935       937       929       932       935       938
       930       929       932       933       930       929       932       934
       930       929       932       935       931       929       932       933
       931       929       932       934       931       929       932       935
       933       932       935       936       933       932       935       937
       933       932       935       938       934       932       935       936
       934       932       935       937       934       932       935       938
       939       940       955       956       939       940       955       957
       939       940       955       961       940       939       943       944
       940       939       943       945       940       939       943       946
       940       939       947       948       940       939       947       949
       940       939       947       950       940       939       951       952
       940       939       951       953       940       939       951       954
       940       955       961       958       941       940       939       943
       941       940       939       947       941       940       939       951
       941       940       955       956       941       940       955       957
       941       940       955       961       942       940       939       943
       942       940       939       947       942       940       939       951
       942       940       955       956       942       940       955       957
       942       940       955       961       943       939       940       955
       943       939       947       948       943       939       947       949
       943       939       947       950       943       939       951       952
       943       939       951       953       943       939       951       954
       944       943       939       947       944       943       939       951
       945       943       939       947       945       943       939       951
       946       943       939       947       946       943       939       951
       947       939       940       955       947       939       951       952
       947       939       951       953       947       939       951       954
       948       947       939       951       949       947       939       951
       950       947       939       951       951       939       940       955
       955       961       958       959       955       961       958       960
       955       961       958       962       956       955       961       958
       957       955       961       958       958       962       963       964
       958       962       963       965       958       962       963       966
       959       958       962       963       960       958       962       963
       961       958       962       963       962       963       966       967
       962       963       966       968       962       963       966       974
       963       966       968       969       963       966       974       975
       963       966       974       976       963       966       974       977
       964       963       966       967       964       963       966       968
       964       963       966       974       965       963       966       967
       965       963       966       968       965       963       966       974
       966       968       969       970       966       968       969       971
       966       974       977       978       967       966       968       969
       967       966       974       975       967       966       974       976
       967       966       974       977       968       966       974       975
       968       966       974       976       968       966       974       977
       968       969       971       972       968       969       971       973
       968       969       971       983       969       968       966       974
       969       971       983       984       969       971       983       985
       969       971       983       986       970       969       971       972
       970       969       971       973       970       969       971       983
       971       983       986       987       971       983       986       988
       971       983       986       989       972       971       983       984
       972       971       983       985       972       971       983       986
       973       971       983       984       973       971       983       985
       973       971       983       986       974       977       978       979
       974       977       978       980       975       974       977       978
       976       974       977       978       977       978       980       981
       977       978       980       982       977       978       980      1030
       978       980      1030      1031       978       980      1030      1032
       978       980      1030      1033       979       978       980       981
       979       978       980       982       979       978       980      1030
       980      1030      1033      1034       980      1030      1033      1035
       980      1030      1033      1036       981       980      1030      1031
       981       980      1030      1032       981       980      1030      1033
       982       980      1030      1031       982       980      1030      1032
       982       980      1030      1033       983       986       989       990
       983       986       989       991       983       986       989       992
       984       983       986       987       984       983       986       988
       984       983       986       989       985       983       986       987
       985       983       986       988       985       983       986       989
       986       989       992       993       986       989       992       994
       986       989       992       995       987       986       989       990
       987       986       989       991       987       986       989       992
       988       986       989       990       988       986       989       991
       988       986       989       992       989       992       995       996
       989       992       995       997       989       992       995       998
       990       989       992       993       990       989       992       994
       990       989       992       995       991       989       992       993
       991       989       992       994       991       989       992       995
       992       995       998       999       992       995       998      1000
       992       995       998      1001       993       992       995       996
       993       992       995       997       993       992       995       998
       994       992       995       996       994       992       995       997
       994       992       995       998       995       998      1001      1002
       995       998      1001      1003       996       995       998       999
       996       995       998      1000       996       995       998      1001
       997       995       998       999       997       995       998      1000
       997       995       998      1001       998      1001      1003      1004
       998      1001      1003      1005       999       998      1001      1002
       999       998      1001      1003      1000       998      1001      1002
      1000       998      1001      1003      1001      1003      1005      1006
      1001      1003      1005      1007      1001      1003      1005      1008
      1002      1001      1003      1004      1002      1001      1003      1005
      1003      1005      1008      1009      1003      1005      1008      1010
      1003      1005      1008      1011      1004      1003      1005      1006
      1004      1003      1005      1007      1004      1003      1005      1008
      1005      1008      1011      1012      1005      1008      1011      1013
      1005      1008      1011      1014      1006      1005      1008      1009
      1006      1005      1008      1010      1006      1005      1008      1011
      1007      1005      1008      1009      1007      1005      1008      1010
      1007      1005      1008      1011      1008      1011      1014      1015
      1008      1011      1014      1016      1008      1011      1014      1017
      1009      1008      1011      1012      1009      1008      1011      1013
      1009      1008      1011      1014      1010      1008      1011      1012
      1010      1008      1011      1013      1010      1008      1011      1014
      1011      1014      1017      1018      1011      1014      1017      1019
      1011      1014      1017      1020      1012      1011      1014      1015
      1012      1011      1014      1016      1012      1011      1014      1017
      1013      1011      1014      1015      1013      1011      1014      1016
      1013      1011      1014      1017      1014      1017      1020      1021
      1014      1017      1020      1022      1014      1017      1020      1023
      1015      1014      1017      1018      1015      1014      1017      1019
      1015      1014      1017      1020      1016      1014      1017      1018
      1016      1014      1017      1019      1016      1014      1017      1020
      1017      1020      1023      1024      1017      1020      1023      1025
      1017      1020      1023      1026      1018      1017      1020      1021
      1018      1017      1020      1022      1018      1017      1020      1023
      1019      1017      1020      1021      1019      1017      1020      1022
      1019      1017      1020      1023      1020      1023      1026      1027
      1020      1023      1026      1028      1020      1023      1026      1029
      1021      1020      1023      1024      1021      1020      1023      1025
      1021      1020      1023      1026      1022      1020      1023      1024
      1022      1020      1023      1025      1022      1020      1023      1026
      1024      1023      1026      1027      1024      1023      1026      1028
      1024      1023      1026      1029      1025      1023      1026      1027
      1025      1023      1026      1028      1025      1023      1026      1029
      1030      1033      1036      1037      1030      1033      1036      1038
      1030      1033      1036      1039      1031      1030      1033      1034
      1031      1030      1033      1035      1031      1030      1033      1036
      1032      1030      1033      1034      1032      1030      1033      1035
      1032      1030      1033      1036      1033      1036      1039      1040
      1033      1036      1039      1041      1033      1036      1039      1042
      1034      1033      1036      1037      1034      1033      1036      1038
      1034      1033      1036      1039      1035      1033      1036      1037
      1035      1033      1036      1038      1035      1033      1036      1039
      1036      1039      1042      1043      1036      1039      1042      1044
      1036      1039      1042      1045      1037      1036      1039      1040
      1037      1036      1039      1041      1037      1036      1039      1042
      1038      1036      1039      1040      1038      1036      1039      1041
      1038      1036      1039      1042      1039      1042      1045      1046
      1039      1042      1045      1047      1039      1042      1045      1048
      1040      1039      1042      1043      1040      1039      1042      1044
      1040      1039      1042      1045      1041      1039      1042      1043
      1041      1039      1042      1044      1041      1039      1042      1045
      1042      1045      1048      1049      1042      1045      1048      1050
      1042      1045      1048      1051      1043      1042      1045      1046
      1043      1042      1045      1047      1043      1042      1045      1048
      1044      1042      1045      1046      1044      1042      1045      1047
      1044      1042      1045      1048      1045      1048      1051      1052
      1045      1048      1051      1053      1045      1048      1051      1054
      1046      1045      1048      1049      1046      1045      1048      1050
      1046      1045      1048      1051      1047      1045      1048      1049
      1047      1045      1048      1050      1047      1045      1048      1051
      1048      1051      1054      1055      1048      1051      1054      1056
      1048      1051      1054      1057      1049      1048      1051      1052
      1049      1048      1051      1053      1049      1048      1051      1054
      1050      1048      1051      1052      1050      1048      1051      1053
      1050      1048      1051      1054      1051      1054      1057      1058
      1051      1054      1057      1059      1051      1054      1057      1060
      1052      1051      1054      1055      1052      1051      1054      1056
      1052      1051      1054      1057      1053      1051      1054      1055
      1053      1051      1054      1056      1053      1051      1054      1057
      1054      1057      1060      1061      1054      1057      1060      1062
      1054      1057      1060      1063      1055      1054      1057      1058
      1055      1054      1057      1059      1055      1054      1057      1060
      1056      1054      1057      1058      1056      1054      1057      1059
      1056      1054      1057      1060      1057      1060      1063      1064
      1057      1060      1063      1065      1057      1060      1063      1066
      1058      1057      1060      1061      1058      1057      1060      1062
      1058      1057      1060      1063      1059      1057      1060      1061
      1059      1057      1060      1062      1059      1057      1060      1063
      1060      1063      1066      1067      1060      1063      1066      1068
      1060      1063      1066      1069      1061      1060      1063      1064
      1061      1060      1063      1065      1061      1060      1063      1066
      1062      1060      1063      1064      1062      1060      1063      1065
      1062      1060      1063      1066      1063      1066      1069      1070
      1063      1066      1069      1071      1063      1066      1069      1072
      1064      1063      1066      1067      1064      1063      1066      1068
      1064      1063      1066      1069      1065      1063      1066      1067
      1065      1063      1066      1068      1065      1063      1066      1069
      1067      1066      1069      1070      1067      1066      1069      1071
      1067      1066      1069      1072      1068      1066      1069      1070
      1068      1066      1069      1071      1068      1066      1069      1072
      1073      1074      1089      1090      1073      1074      1089      1091
      1073      1074      1089      1095      1074      1073      1077      1078
      1074      1073      1077      1079      1074      1073      1077      1080
      1074      1073      1081      1082      1074      1073      1081      1083
      1074      1073      1081      1084      1074      1073      1085      1086
      1074      1073      1085      1087      1074      1073      1085      1088
      1074      1089      1095      1092      1075      1074      1073      1077
      1075      1074      1073      1081      1075      1074      1073      1085
      1075      1074      1089      1090      1075      1074      1089      1091
      1075      1074      1089      1095      1076      1074      1073      1077
      1076      1074      1073      1081      1076      1074      1073      1085
      1076      1074      1089      1090      1076      1074      1089      1091
      1076      1074      1089      1095      1077      1073      1074      1089
      1077      1073      1081      1082      1077      1073      1081      1083
      1077      1073      1081      1084      1077      1073      1085      1086
      1077      1073      1085      1087      1077      1073      1085      1088
      1078      1077      1073      1081      1078      1077      1073      1085
      1079      1077      1073      1081      1079      1077      1073      1085
      1080      1077      1073      1081      1080      1077      1073      1085
      1081      1073      1074      1089      1081      1073      1085      1086
      1081      1073      1085      1087      1081      1073      1085      1088
      1082      1081      1073      1085      1083      1081      1073      1085
      1084      1081      1073      1085      1085      1073      1074      1089
      1089      1095      1092      1093      1089      1095      1092      1094
      1089      1095      1092      1096      1090      1089      1095      1092
      1091      1089      1095      1092      1092      1096      1097      1098
      1092      1096      1097      1099      1092      1096      1097      1100
      1093      1092      1096      1097      1094      1092      1096      1097
      1095      1092      1096      1097      1096      1097      1100      1101
      1096      1097      1100      1102      1096      1097      1100      1108
      1097      1100      1102      1103      1097      1100      1108      1109
      1097      1100      1108      1110      1097      1100      1108      1111
      1098      1097      1100      1101      1098      1097      1100      1102
      1098      1097      1100      1108      1099      1097      1100      1101
      1099      1097      1100      1102      1099      1097      1100      1108
      1100      1102      1103      1104      1100      1102      1103      1105
      1100      1108      1111      1112      1101      1100      1102      1103
      1101      1100      1108      1109      1101      1100      1108      1110
      1101      1100      1108      1111      1102      1100      1108      1109
      1102      1100      1108      1110      1102      1100      1108      1111
      1102      1103      1105      1106      1102      1103      1105      1107
      1102      1103      1105      1117      1103      1102      1100      1108
      1103      1105      1117      1118      1103      1105      1117      1119
      1103      1105      1117      1120      1104      1103      1105      1106
      1104      1103      1105      1107      1104      1103      1105      1117
      1105      1117      1120      1121      1105      1117      1120      1122
      1105      1117      1120      1123      1106      1105      1117      1118
      1106      1105      1117      1119      1106      1105      1117      1120
      1107      1105      1117      1118      1107      1105      1117      1119
      1107      1105      1117      1120      1108      1111      1112      1113
      1108      1111      1112      1114      1109      1108      1111      1112
      1110      1108      1111      1112      1111      1112      1114      1115
      1111      1112      1114      1116      1111      1112      1114      1164
      1112      1114      1164      1165      1112      1114      1164      1166
      1112      1114      1164      1167      1113      1112      1114      1115
      1113      1112      1114      1116      1113      1112      1114      1164
      1114      1164      1167      1168      1114      1164      1167      1169
      1114      1164      1167      1170      1115      1114      1164      1165
      1115      1114      1164      1166      1115      1114      1164      1167
      1116      1114      1164      1165      1116      1114      1164      1166
      1116      1114      1164      1167      1117      1120      1123      1124
      1117      1120      1123      1125      1117      1120      1123      1126
      1118      1117      1120      1121      1118      1117      1120      1122
      1118      1117      1120      1123      1119      1117      1120      1121
      1119      1117      1120      1122      1119      1117      1120      1123
      1120      1123      1126      1127      1120      1123      1126      1128
      1120      1123      1126      1129      1121      1120      1123      1124
      1121      1120      1123      1125      1121      1120      1123      1126
      1122      1120      1123      1124      1122      1120      1123      1125
      1122      1120      1123      1126      1123      1126      1129      1130
      1123      1126      1129      1131      1123      1126      1129      1132
      1124      1123      1126      1127      1124      1123      1126      1128
      1124      1123      1126      1129      1125      1123      1126      1127
      1125      1123      1126      1128      1125      1123      1126      1129
      1126      1129      1132      1133      1126      1129      1132      1134
      1126      1129      1132      1135      1127      1126      1129      1130
      1127      1126      1129      1131      1127      1126      1129      1132
      1128      1126      1129      1130      1128      1126      1129      1131
      1128      1126      1129      1132      1129      1132      1135      1136
      1129      1132      1135      1137      1130      1129      1132      1133
      1130      1129      1132      1134      1130      1129      1132      1135
      1131      1129      1132      1133      1131      1129      1132      1134
      1131      1129      1132      1135      1132      1135      1137      1138
      1132      1135      1137      1139      1133      1132      1135      1136
      1133      1132      1135      1137      1134      1132      1135      1136
      1134      1132      1135      1137      1135      1137      1139      1140
      1135      1137      1139      1141      1135      1137      1139      1142
      1136      1135      1137      1138      1136      1135      1137      1139
      1137      1139      1142      1143      1137      1139      1142      1144
      1137      1139      1142      1145      1138      1137      1139      1140
      1138      1137      1139      1141      1138      1137      1139      1142
      1139      1142      1145      1146      1139      1142      1145      1147
      1139      1142      1145      1148      1140      1139      1142      1143
      1140      1139      1142      1144      1140      1139      1142      1145
      1141      1139      1142      1143      1141      1139      1142      1144
      1141      1139      1142      1145      1142      1145      1148      1149
      1142      1145      1148      1150      1142      1145      1148      1151
      1143      1142      1145      1146      1143      1142      1145      1147
      1143      1142      1145      1148      1144      1142      1145      1146
      1144      1142      1145      1147      1144      1142      1145      1148
      1145      1148      1151      1152      1145      1148      1151      1153
      1145      1148      1151      1154      1146      1145      1148      1149
      1146      1145      1148      1150      1146      1145      1148      1151
      1147      1145      1148      1149      1147      1145      1148      1150
      1147      1145      1148      1151      1148      1151      1154      1155
      1148      1151      1154      1156      1148      1151      1154      1157
      1149      1148      1151      1152      1149      1148      1151      1153
      1149      1148      1151      1154      1150      1148      1151      1152
      1150      1148      1151      1153      1150      1148      1151      1154
      1151      1154      1157      1158      1151      1154      1157      1159
      1151      1154      1157      1160      1152      1151      1154      1155
      1152      1151      1154      1156      1152      1151      1154      1157
      1153      1151      1154      1155      1153      1151      1154      1156
      1153      1151      1154      1157      1154      1157      1160      1161
      1154      1157      1160      1162      1154      1157      1160      1163
      1155      1154      1157      1158      1155      1154      1157      1159
      1155      1154      1157      1160      1156      1154      1157      1158
      1156      1154      1157      1159      1156      1154      1157      1160
      1158      1157      1160      1161      1158      1157      1160      1162
      1158      1157      1160      1163      1159      1157      1160      1161
      1159      1157      1160      1162      1159      1157      1160      1163
      1164      1167      1170      1171      1164      1167      1170      1172
      1164      1167      1170      1173      1165      1164      1167      1168
      1165      1164      1167      1169      1165      1164      1167      1170
      1166      1164      1167      1168      1166      1164      1167      1169
      1166      1164      1167      1170      1167      1170      1173      1174
      1167      1170      1173      1175      1167      1170      1173      1176
      1168      1167      1170      1171      1168      1167      1170      1172
      1168      1167      1170      1173      1169      1167      1170      1171
      1169      1167      1170      1172      1169      1167      1170      1173
      1170      1173      1176      1177      1170      1173      1176      1178
      1170      1173      1176      1179      1171      1170      1173      1174
      1171      1170      1173      1175      1171      1170      1173      1176
      1172      1170      1173      1174      1172      1170      1173      1175
      1172      1170      1173      1176      1173      1176      1179      1180
      1173      1176      1179      1181      1173      1176      1179      1182
      1174      1173      1176      1177      1174      1173      1176      1178
      1174      1173      1176      1179      1175      1173      1176      1177
      1175      1173      1176      1178      1175      1173      1176      1179
      1176      1179      1182      1183      1176      1179      1182      1184
      1176      1179      1182      1185      1177      1176      1179      1180
      1177      1176      1179      1181      1177      1176      1179      1182
      1178      1176      1179      1180      1178      1176      1179      1181
      1178      1176      1179      1182      1179      1182      1185      1186
      1179      1182      1185      1187      1179      1182      1185      1188
      1180      1179      1182      1183      1180      1179      1182      1184
      1180      1179      1182      1185      1181      1179      1182      1183
      1181      1179      1182      1184      1181      1179      1182      1185
      1182      1185      1188      1189      1182      1185      1188      1190
      1182      1185      1188      1191      1183      1182      1185      1186
      1183      1182      1185      1187      1183      1182      1185      1188
      1184      1182      1185      1186      1184      1182      1185      1187
      1184      1182      1185      1188      1185      1188      1191      1192
      1185      1188      1191      1193      1185      1188      1191      1194
      1186      1185      1188      1189      1186      1185      1188      1190
      1186      1185      1188      1191      1187      1185      1188      1189
      1187      1185      1188      1190      1187      1185      1188      1191
      1188      1191      1194      1195      1188      1191      1194      1196
      1188      1191      1194      1197      1189      1188      1191      1192
      1189      1188      1191      1193      1189      1188      1191      1194
      1190      1188      1191      1192      1190      1188      1191      1193
      1190      1188      1191      1194      1191      1194      1197      1198
      1191      1194      1197      1199      1191      1194      1197      1200
      1192      1191      1194      1195      1192      1191      1194      1196
      1192      1191      1194      1197      1193      1191      1194      1195
      1193      1191      1194      1196      1193      1191      1194      1197
      1194      1197      1200      1201      1194      1197      1200      1202
      1194      1197      1200      1203      1195      1194      1197      1198
      1195      1194      1197      1199      1195      1194      1197      1200
      1196      1194      1197      1198      1196      1194      1197      1199
      1196      1194      1197      1200      1197      1200      1203      1204
      1197      1200      1203      1205      1197      1200      1203      1206
      1198      1197      1200      1201      1198      1197      1200      1202
      1198      1197      1200      1203      1199      1197      1200      1201
      1199      1197      1200      1202      1199      1197      1200      1203
      1201      1200      1203      1204      1201      1200      1203      1205
      1201      1200      1203      1206      1202      1200      1203      1204
      1202      1200      1203      1205      1202      1200      1203      1206
      1207      1208      1223      1224      1207      1208      1223      1225
      1207      1208      1223      1229      1208      1207      1211      1212
      1208      1207      1211      1213      1208      1207      1211      1214
      1208      1207      1215      1216      1208      1207      1215      1217
      1208      1207      1215      1218      1208      1207      1219      1220
      1208      1207      1219      1221      1208      1207      1219      1222
      1208      1223      1229      1226      1209      1208      1207      1211
      1209      1208      1207      1215      1209      1208      1207      1219
      1209      1208      1223      1224      1209      1208      1223      1225
      1209      1208      1223      1229      1210      1208      1207      1211
      1210      1208      1207      1215      1210      1208      1207      1219
      1210      1208      1223      1224      1210      1208      1223      1225
      1210      1208      1223      1229      1211      1207      1208      1223
      1211      1207      1215      1216      1211      1207      1215      1217
      1211      1207      1215      1218      1211      1207      1219      1220
      1211      1207      1219      1221      1211      1207      1219      1222
      1212      1211      1207      1215      1212      1211      1207      1219
      1213      1211      1207      1215      1213      1211      1207      1219
      1214      1211      1207      1215      1214      1211      1207      1219
      1215      1207      1208      1223      1215      1207      1219      1220
      1215      1207      1219      1221      1215      1207      1219      1222
      1216      1215      1207      1219      1217      1215      1207      1219
      1218      1215      1207      1219      1219      1207      1208      1223
      1223      1229      1226      1227      1223      1229      1226      1228
      1223      1229      1226      1230      1224      1223      1229      1226
      1225      1223      1229      1226      1226      1230      1231      1232
      1226      1230      1231      1233      1226      1230      1231      1234
      1227      1226      1230      1231      1228      1226      1230      1231
      1229      1226      1230      1231      1230      1231      1234      1235
      1230      1231      1234      1236      1230      1231      1234      1242
      1231      1234      1236      1237      1231      1234      1242      1243
      1231      1234      1242      1244      1231      1234      1242      1245
      1232      1231      1234      1235      1232      1231      1234      1236
      1232      1231      1234      1242      1233      1231      1234      1235
      1233      1231      1234      1236      1233      1231      1234      1242
      1234      1236      1237      1238      1234      1236      1237      1239
      1234      1242      1245      1246      1235      1234      1236      1237
      1235      1234      1242      1243      1235      1234      1242      1244
      1235      1234      1242      1245      1236      1234      1242      1243
      1236      1234      1242      1244      1236      1234      1242      1245
      1236      1237      1239      1240      1236      1237      1239      1241
      1236      1237      1239      1251      1237      1236      1234      1242
      1237      1239      1251      1252      1237      1239      1251      1253
      1237      1239      1251      1254      1238      1237      1239      1240
      1238      1237      1239      1241      1238      1237      1239      1251
      1239      1251      1254      1255      1239      1251      1254      1256
      1239      1251      1254      1257      1240      1239      1251      1252
      1240      1239      1251      1253      1240      1239      1251      1254
      1241      1239      1251      1252      1241      1239      1251      1253
      1241      1239      1251      1254      1242      1245      1246      1247
      1242      1245      1246      1248      1243      1242      1245      1246
      1244      1242      1245      1246      1245      1246      1248      1249
      1245      1246      1248      1250      1245      1246      1248      1298
      1246      1248      1298      1299      1246      1248      1298      1300
      1246      1248      1298      1301      1247      1246      1248      1249
      1247      1246      1248      1250      1247      1246      1248      1298
      1248      1298      1301      1302      1248      1298      1301      1303
      1248      1298      1301      1304      1249      1248      1298      1299
      1249      1248      1298      1300      1249      1248      1298      1301
      1250      1248      1298      1299      1250      1248      1298      1300
      1250      1248      1298      1301      1251      1254      1257      1258
      1251      1254      1257      1259      1251      1254      1257      1260
      1252      1251      1254      1255      1252      1251      1254      1256
      1252      1251      1254      1257      1253      1251      1254      1255
      1253      1251      1254      1256      1253      1251      1254      1257
      1254      1257      1260      1261      1254      1257      1260      1262
      1254      1257      1260      1263      1255      1254      1257      1258
      1255      1254      1257      1259      1255      1254      1257      1260
      1256      1254      1257      1258      1256      1254      1257      1259
      1256      1254      1257      1260      1257      1260      1263      1264
      1257      1260      1263      1265      1257      1260      1263      1266
      1258      1257      1260      1261      1258      1257      1260      1262
      1258      1257      1260      1263      1259      1257      1260      1261
      1259      1257      1260      1262      1259      1257      1260      1263
      1260      1263      1266      1267      1260      1263      1266      1268
      1260      1263      1266      1269      1261      1260      1263      1264
      1261      1260      1263      1265      1261      1260      1263      1266
      1262      1260      1263      1264      1262      1260      1263      1265
      1262      1260      1263      1266      1263      1266      1269      1270
      1263      1266      1269      1271      1264      1263      1266      1267
      1264      1263      1266      1268      1264      1263      1266      1269
      1265      1263      1266      1267      1265      1263      1266      1268
      1265      1263      1266      1269      1266      1269      1271      1272
      1266      1269      1271      1273      1267      1266      1269      1270
      1267      1266      1269      1271      1268      1266      1269      1270
      1268      1266      1269      1271      1269      1271      1273      1274
      1269      1271      1273      1275      1269      1271      1273      1276
      1270      1269      1271      1272      1270      1269      1271      1273
      1271      1273      1276      1277      1271      1273      1276      1278
      1271      1273      1276      1279      1272      1271      1273      1274
      1272      1271      1273      1275      1272      1271      1273      1276
      1273      1276      1279      1280      1273      1276      1279      1281
      1273      1276      1279      1282      1274      1273      1276      1277
      1274      1273      1276      1278      1274      1273      1276      1279
      1275      1273      1276      1277      1275      1273      1276      1278
      1275      1273      1276      1279      1276      1279      1282      1283
      1276      1279      1282      1284      1276      1279      1282      1285
      1277      1276      1279      1280      1277      1276      1279      1281
      1277      1276      1279      1282      1278      1276      1279      1280
      1278      1276      1279      1281      1278      1276      1279      1282
      1279      1282      1285      1286      1279      1282      1285      1287
      1279      1282      1285      1288      1280      1279      1282      1283
      1280      1279      1282      1284      1280      1279      1282      1285
      1281      1279      1282      1283      1281      1279      1282      1284
      1281      1279      1282      1285      1282      1285      1288      1289
      1282      1285      1288      1290      1282      1285      1288      1291
      1283      1282      1285      1286      1283      1282      1285      1287
      1283      1282      1285      1288      1284      1282      1285      1286
      1284      1282      1285      1287      1284      1282      1285      1288
      1285      1288      1291      1292      1285      1288      1291      1293
      1285      1288      1291      1294      1286      1285      1288      1289
      1286      1285      1288      1290      1286      1285      1288      1291
      1287      1285      1288      1289      1287      1285      1288      1290
      1287      1285      1288      1291      1288      1291      1294      1295
      1288      1291      1294      1296      1288      1291      1294      1297
      1289      1288      1291      1292      1289      1288      1291      1293
      1289      1288      1291      1294      1290      1288      1291      1292
      1290      1288      1291      1293      1290      1288      1291      1294
      1292      1291      1294      1295      1292      1291      1294      1296
      1292      1291      1294      1297      1293      1291      1294      1295
      1293      1291      1294      1296      1293      1291      1294      1297
      1298      1301      1304      1305      1298      1301      1304      1306
      1298      1301      1304      1307      1299      1298      1301      1302
      1299      1298      1301      1303      1299      1298      1301      1304
      1300      1298      1301      1302      1300      1298      1301      1303
      1300      1298      1301      1304      1301      1304      1307      1308
      1301      1304      1307      1309      1301      1304      1307      1310
      1302      1301      1304      1305      1302      1301      1304      1306
      1302      1301      1304      1307      1303      1301      1304      1305
      1303      1301      1304      1306      1303      1301      1304      1307
      1304      1307      1310      1311      1304      1307      1310      1312
      1304      1307      1310      1313      1305      1304      1307      1308
      1305      1304      1307      1309      1305      1304      1307      1310
      1306      1304      1307      1308      1306      1304      1307      1309
      1306      1304      1307      1310      1307      1310      1313      1314
      1307      1310      1313      1315      1307      1310      1313      1316
      1308      1307      1310      1311      1308      1307      1310      1312
      1308      1307      1310      1313      1309      1307      1310      1311
      1309      1307      1310      1312      1309      1307      1310      1313
      1310      1313      1316      1317      1310      1313      1316      1318
      1310      1313      1316      1319      1311      1310      1313      1314
      1311      1310      1313      1315      1311      1310      1313      1316
      1312      1310      1313      1314      1312      1310      1313      1315
      1312      1310      1313      1316      1313      1316      1319      1320
      1313      1316      1319      1321      1313      1316      1319      1322
      1314      1313      1316      1317      1314      1313      1316      1318
      1314      1313      1316      1319      1315      1313      1316      1317
      1315      1313      1316      1318      1315      1313      1316      1319
      1316      1319      1322      1323      1316      1319      1322      1324
      1316      1319      1322      1325      1317      1316      1319      1320
      1317      1316      1319      1321      1317      1316      1319      1322
      1318      1316      1319      1320      1318      1316      1319      1321
      1318      1316      1319      1322      1319      1322      1325      1326
      1319      1322      1325      1327      1319      1322      1325      1328
      1320      1319      1322      1323      1320      1319      1322      1324
      1320      1319      1322      1325      1321      1319      1322      1323
      1321      1319      1322      1324      1321      1319      1322      1325
      1322      1325      1328      1329      1322      1325      1328      1330
      1322      1325      1328      1331      1323      1322      1325      1326
      1323      1322      1325      1327      1323      1322      1325      1328
      1324      1322      1325      1326      1324      1322      1325      1327
      1324      1322      1325      1328      1325      1328      1331      1332
      1325      1328      1331      1333      1325      1328      1331      1334
      1326      1325      1328      1329      1326      1325      1328      1330
      1326      1325      1328      1331      1327      1325      1328      1329
      1327      1325      1328      1330      1327      1325      1328      1331
      1328      1331      1334      1335      1328      1331      1334      1336
      1328      1331      1334      1337      1329      1328      1331      1332
      1329      1328      1331      1333      1329      1328      1331      1334
      1330      1328      1331      1332      1330      1328      1331      1333
      1330      1328      1331      1334      1331      1334      1337      1338
      1331      1334      1337      1339      1331      1334      1337      1340
      1332      1331      1334      1335      1332      1331      1334      1336
      1332      1331      1334      1337      1333      1331      1334      1335
      1333      1331      1334      1336      1333      1331      1334      1337
      1335      1334      1337      1338      1335      1334      1337      1339
      1335      1334      1337      1340      1336      1334      1337      1338
      1336      1334      1337      1339      1336      1334      1337      1340
      1341      1342      1357      1358      1341      1342      1357      1359
      1341      1342      1357      1363      1342      1341      1345      1346
      1342      1341      1345      1347      1342      1341      1345      1348
      1342      1341      1349      1350      1342      1341      1349      1351
      1342      1341      1349      1352      1342      1341      1353      1354
      1342      1341      1353      1355      1342      1341      1353      1356
      1342      1357      1363      1360      1343      1342      1341      1345
      1343      1342      1341      1349      1343      1342      1341      1353
      1343      1342      1357      1358      1343      1342      1357      1359
      1343      1342      1357      1363      1344      1342      1341      1345
      1344      1342      1341      1349      1344      1342      1341      1353
      1344      1342      1357      1358      1344      1342      1357      1359
      1344      1342      1357      1363      1345      1341      1342      1357
      1345      1341      1349      1350      1345      1341      1349      1351
      1345      1341      1349      1352      1345      1341      1353      1354
      1345      1341      1353      1355      1345      1341      1353      1356
      1346      1345      1341      1349      1346      1345      1341      1353
      1347      1345      1341      1349      1347      1345      1341      1353
      1348      1345      1341      1349      1348      1345      1341      1353
      1349      1341      1342      1357      1349      1341      1353      1354
      1349      1341      1353      1355      1349      1341      1353      1356
      1350      1349      1341      1353      1351      1349      1341      1353
      1352      1349      1341      1353      1353      1341      1342      1357
      1357      1363      1360      1361      1357      1363      1360      1362
      1357      1363      1360      1364      1358      1357      1363      1360
      1359      1357      1363      1360      1360      1364      1365      1366
      1360      1364      1365      1367      1360      1364      1365      1368
      1361      1360      1364      1365      1362      1360      1364      1365
      1363      1360      1364      1365      1364      1365      1368      1369
      1364      1365      1368      1370      1364      1365      1368      1376
      1365      1368      1370      1371      1365      1368      1376      1377
      1365      1368      1376      1378      1365      1368      1376      1379
      1366      1365      1368      1369      1366      1365      1368      1370
      1366      1365      1368      1376      1367      1365      1368      1369
      1367      1365      1368      1370      1367      1365      1368      1376
      1368      1370      1371      1372      1368      1370      1371      1373
      1368      1376      1379      1380      1369      1368      1370      1371
      1369      1368      1376      1377      1369      1368      1376      1378
      1369      1368      1376      1379      1370      1368      1376      1377
      1370      1368      1376      1378      1370      1368      1376      1379
      1370      1371      1373      1374      1370      1371      1373      1375
      1370      1371      1373      1385      1371      1370      1368      1376
      1371      1373      1385      1386      1371      1373      1385      1387
      1371      1373      1385      1388      1372      1371      1373      1374
      1372      1371      1373      1375      1372      1371      1373      1385
      1373      1385      1388      1389      1373      1385      1388      1390
      1373      1385      1388      1391      1374      1373      1385      1386
      1374      1373      1385      1387      1374      1373      1385      1388
      1375      1373      1385      1386      1375      1373      1385      1387
      1375      1373      1385      1388      1376      1379      1380      1381
      1376      1379      1380      1382      1377      1376      1379      1380
      1378      1376      1379      1380      1379      1380      1382      1383
      1379      1380      1382      1384      1379      1380      1382      1432
      1380      1382      1432      1433      1380      1382      1432      1434
      1380      1382      1432      1435      1381      1380      1382      1383
      1381      1380      1382      1384      1381      1380      1382      1432
      1382      1432      1435      1436      1382      1432      1435      1437
      1382      1432      1435      1438      1383      1382      1432      1433
      1383      1382      1432      1434      1383      1382      1432      1435
      1384      1382      1432      1433      1384      1382      1432      1434
      1384      1382      1432      1435      1385      1388      1391      1392
      1385      1388      1391      1393      1385      1388      1391      1394
      1386      1385      1388      1389      1386      1385      1388      1390
      1386      1385      1388      1391      1387      1385      1388      1389
      1387      1385      1388      1390      1387      1385      1388      1391
      1388      1391      1394      1395      1388      1391      1394      1396
      1388      1391      1394      1397      1389      1388      1391      1392
      1389      1388      1391      1393      1389      1388      1391      1394
      1390      1388      1391      1392      1390      1388      1391      1393
      1390      1388      1391      1394      1391      1394      1397      1398
      1391      1394      1397      1399      1391      1394      1397      1400
      1392      1391      1394      1395      1392      1391      1394      1396
      1392      1391      1394      1397      1393      1391      1394      1395
      1393      1391      1394      1396      1393      1391      1394      1397
      1394      1397      1400      1401      1394      1397      1400      1402
      1394      1397      1400      1403      1395      1394      1397      1398
      1395      1394      1397      1399      1395      1394      1397      1400
      1396      1394      1397      1398      1396      1394      1397      1399
      1396      1394      1397      1400      1397      1400      1403      1404
      1397      1400      1403      1405      1398      1397      1400      1401
      1398      1397      1400      1402      1398      1397      1400      1403
      1399      1397      1400      1401      1399      1397      1400      1402
      1399      1397      1400      1403      1400      1403      1405      1406
      1400      1403      1405      1407      1401      1400      1403      1404
      1401      1400      1403      1405      1402      1400      1403      1404
      1402      1400      1403      1405      1403      1405      1407      1408
      1403      1405      1407      1409      1403      1405      1407      1410
      1404      1403      1405      1406      1404      1403      1405      1407
      1405      1407      1410      1411      1405      1407      1410      1412
      1405      1407      1410      1413      1406      1405      1407      1408
      1406      1405      1407      1409      1406      1405      1407      1410
      1407      1410      1413      1414      1407      1410      1413      1415
      1407      1410      1413      1416      1408      1407      1410      1411
      1408      1407      1410      1412      1408      1407      1410      1413
      1409      1407      1410      1411      1409      1407      1410      1412
      1409      1407      1410      1413      1410      1413      1416      1417
      1410      1413      1416      1418      1410      1413      1416      1419
      1411      1410      1413      1414      1411      1410      1413      1415
      1411      1410      1413      1416      1412      1410      1413      1414
      1412      1410      1413      1415      1412      1410      1413      1416
      1413      1416      1419      1420      1413      1416      1419      1421
      1413      1416      1419      1422      1414      1413      1416      1417
      1414      1413      1416      1418      1414      1413      1416      1419
      1415      1413      1416      1417      1415      1413      1416      1418
      1415      1413      1416      1419      1416      1419      1422      1423
      1416      1419      1422      1424      1416      1419      1422      1425
      1417      1416      1419      1420      1417      1416      1419      1421
      1417      1416      1419      1422      1418      1416      1419      1420
      1418      1416      1419      1421      1418      1416      1419      1422
      1419      1422      1425      1426      1419      1422      1425      1427
      1419      1422      1425      1428      1420      1419      1422      1423
      1420      1419      1422      1424      1420      1419      1422      1425
      1421      1419      1422      1423      1421      1419      1422      1424
      1421      1419      1422      1425      1422      1425      1428      1429
      1422      1425      1428      1430      1422      1425      1428      1431
      1423      1422      1425      1426      1423      1422      1425      1427
      1423      1422      1425      1428      1424      1422      1425      1426
      1424      1422      1425      1427      1424      1422      1425      1428
      1426      1425      1428      1429      1426      1425      1428      1430
      1426      1425      1428      1431      1427      1425      1428      1429
      1427      1425      1428      1430      1427      1425      1428      1431
      1432      1435      1438      1439      1432      1435      1438      1440
      1432      1435      1438      1441      1433      1432      1435      1436
      1433      1432      1435      1437      1433      1432      1435      1438
      1434      1432      1435      1436      1434      1432      1435      1437
      1434      1432      1435      1438      1435      1438      1441      1442
      1435      1438      1441      1443      1435      1438      1441      1444
      1436      1435      1438      1439      1436      1435      1438      1440
      1436      1435      1438      1441      1437      1435      1438      1439
      1437      1435      1438      1440      1437      1435      1438      1441
      1438      1441      1444      1445      1438      1441      1444      1446
      1438      1441      1444      1447      1439      1438      1441      1442
      1439      1438      1441      1443      1439      1438      1441      1444
      1440      1438      1441      1442      1440      1438      1441      1443
      1440      1438      1441      1444      1441      1444      1447      1448
      1441      1444      1447      1449      1441      1444      1447      1450
      1442      1441      1444      1445      1442      1441      1444      1446
      1442      1441      1444      1447      1443      1441      1444      1445
      1443      1441      1444      1446      1443      1441      1444      1447
      1444      1447      1450      1451      1444      1447      1450      1452
      1444      1447      1450      1453      1445      1444      1447      1448
      1445      1444      1447      1449      1445      1444      1447      1450
      1446      1444      1447      1448      1446      1444      1447      1449
      1446      1444      1447      1450      1447      1450      1453      1454
      1447      1450      1453      1455      1447      1450      1453      1456
      1448      1447      1450      1451      1448      1447      1450      1452
      1448      1447      1450      1453      1449      1447      1450      1451
      1449      1447      1450      1452      1449      1447      1450      1453
      1450      1453      1456      1457      1450      1453      1456      1458
      1450      1453      1456      1459      1451      1450      1453      1454
      1451      1450      1453      1455      1451      1450      1453      1456
      1452      1450      1453      1454      1452      1450      1453      1455
      1452      1450      1453      1456      1453      1456      1459      1460
      1453      1456      1459      1461      1453      1456      1459      1462
      1454      1453      1456      1457      1454      1453      1456      1458
      1454      1453      1456      1459      1455      1453      1456      1457
      1455      1453      1456      1458      1455      1453      1456      1459
      1456      1459      1462      1463      1456      1459      1462      1464
      1456      1459      1462      1465      1457      1456      1459      1460
      1457      1456      1459      1461      1457      1456      1459      1462
      1458      1456      1459      1460      1458      1456      1459      1461
      1458      1456      1459      1462      1459      1462      1465      1466
      1459      1462      1465      1467      1459      1462      1465      1468
      1460      1459      1462      1463      1460      1459      1462      1464
      1460      1459      1462      1465      1461      1459      1462      1463
      1461      1459      1462      1464      1461      1459      1462      1465
      1462      1465      1468      1469      1462      1465      1468      1470
      1462      1465      1468      1471      1463      1462      1465      1466
      1463      1462      1465      1467      1463      1462      1465      1468
      1464      1462      1465      1466      1464      1462      1465      1467
      1464      1462      1465      1468      1465      1468      1471      1472
      1465      1468      1471      1473      1465      1468      1471      1474
      1466      1465      1468      1469      1466      1465      1468      1470
      1466      1465      1468      1471      1467      1465      1468      1469
      1467      1465      1468      1470      1467      1465      1468      1471
      1469      1468      1471      1472      1469      1468      1471      1473
      1469      1468      1471      1474      1470      1468      1471      1472
      1470      1468      1471      1473      1470      1468      1471      1474
      1475      1476      1491      1492      1475      1476      1491      1493
      1475      1476      1491      1497      1476      1475      1479      1480
      1476      1475      1479      1481      1476      1475      1479      1482
      1476      1475      1483      1484      1476      1475      1483      1485
      1476      1475      1483      1486      1476      1475      1487      1488
      1476      1475      1487      1489      1476      1475      1487      1490
      1476      1491      1497      1494      1477      1476      1475      1479
      1477      1476      1475      1483      1477      1476      1475      1487
      1477      1476      1491      1492      1477      1476      1491      1493
      1477      1476      1491      1497      1478      1476      1475      1479
      1478      1476      1475      1483      1478      1476      1475      1487
      1478      1476      1491      1492      1478      1476      1491      1493
      1478      1476      1491      1497      1479      1475      1476      1491
      1479      1475      1483      1484      1479      1475      1483      1485
      1479      1475      1483      1486      1479      1475      1487      1488
      1479      1475      1487      1489      1479      1475      1487      1490
      1480      1479      1475      1483      1480      1479      1475      1487
      1481      1479      1475      1483      1481      1479      1475      1487
      1482      1479      1475      1483      1482      1479      1475      1487
      1483      1475      1476      1491      1483      1475      1487      1488
      1483      1475      1487      1489      1483      1475      1487      1490
      1484      1483      1475      1487      1485      1483      1475      1487
      1486      1483      1475      1487      1487      1475      1476      1491
      1491      1497      1494      1495      1491      1497      1494      1496
      1491      1497      1494      1498      1492      1491      1497      1494
      1493      1491      1497      1494      1494      1498      1499      1500
      1494      1498      1499      1501      1494      1498      1499      1502
      1495      1494      1498      1499      1496      1494      1498      1499
      1497      1494      1498      1499      1498      1499      1502      1503
      1498      1499      1502      1504      1498      1499      1502      1510
      1499      1502      1504      1505      1499      1502      1510      1511
      1499      1502      1510      1512      1499      1502      1510      1513
      1500      1499      1502      1503      1500      1499      1502      1504
      1500      1499      1502      1510      1501      1499      1502      1503
      1501      1499      1502      1504      1501      1499      1502      1510
      1502      1504      1505      1506      1502      1504      1505      1507
      1502      1510      1513      1514      1503      1502      1504      1505
      1503      1502      1510      1511      1503      1502      1510      1512
      1503      1502      1510      1513      1504      1502      1510      1511
      1504      1502      1510      1512      1504      1502      1510      1513
      1504      1505      1507      1508      1504      1505      1507      1509
      1504      1505      1507      1519      1505      1504      1502      1510
      1505      1507      1519      1520      1505      1507      1519      1521
      1505      1507      1519      1522      1506      1505      1507      1508
      1506      1505      1507      1509      1506      1505      1507      1519
      1507      1519      1522      1523      1507      1519      1522      1524
      1507      1519      1522      1525      1508      1507      1519      1520
      1508      1507      1519      1521      1508      1507      1519      1522
      1509      1507      1519      1520      1509      1507      1519      1521
      1509      1507      1519      1522      1510      1513      1514      1515
      1510      1513      1514      1516      1511      1510      1513      1514
      1512      1510      1513      1514      1513      1514      1516      1517
      1513      1514      1516      1518      1513      1514      1516      1566
      1514      1516      1566      1567      1514      1516      1566      1568
      1514      1516      1566      1569      1515      1514      1516      1517
      1515      1514      1516      1518      1515      1514      1516      1566
      1516      1566      1569      1570      1516      1566      1569      1571
      1516      1566      1569      1572      1517      1516      1566      1567
      1517      1516      1566      1568      1517      1516      1566      1569
      1518      1516      1566      1567      1518      1516      1566      1568
      1518      1516      1566      1569      1519      1522      1525      1526
      1519      1522      1525      1527      1519      1522      1525      1528
      1520      1519      1522      1523      1520      1519      1522      1524
      1520      1519      1522      1525      1521      1519      1522      1523
      1521      1519      1522      1524      1521      1519      1522      1525
      1522      1525      1528      1529      1522      1525      1528      1530
      1522      1525      1528      1531      1523      1522      1525      1526
      1523      1522      1525      1527      1523      1522      1525      1528
      1524      1522      1525      1526      1524      1522      1525      1527
      1524      1522      1525      1528      1525      1528      1531      1532
      1525      1528      1531      1533      1525      1528      1531      1534
      1526      1525      1528      1529      1526      1525      1528      1530
      1526      1525      1528      1531      1527      1525      1528      1529
      1527      1525      1528      1530      1527      1525      1528      1531
      1528      1531      1534      1535      1528      1531      1534      1536
      1528      1531      1534      1537      1529      1528      1531      1532
      1529      1528      1531      1533      1529      1528      1531      1534
      1530      1528      1531      1532      1530      1528      1531      1533
      1530      1528      1531      1534      1531      1534      1537      1538
      1531      1534      1537      1539      1532      1531      1534      1535
      1532      1531      1534      1536      1532      1531      1534      1537
      1533      1531      1534      1535      1533      1531      1534      1536
      1533      1531      1534      1537      1534      1537      1539      1540
      1534      1537      1539      1541      1535      1534      1537      1538
      1535      1534      1537      1539      1536      1534      1537      1538
      1536      1534      1537      1539      1537      1539      1541      1542
      1537      1539      1541      1543      1537      1539      1541      1544
      1538      1537      1539      1540      1538      1537      1539      1541
      1539      1541      1544      1545      1539      1541      1544      1546
      1539      1541      1544      1547      1540      1539      1541      1542
      1540      1539      1541      1543      1540      1539      1541      1544
      1541      1544      1547      1548      1541      1544      1547      1549
      1541      1544      1547      1550      1542      1541      1544      1545
      1542      1541      1544      1546      1542      1541      1544      1547
      1543      1541      1544      1545      1543      1541      1544      1546
      1543      1541      1544      1547      1544      1547      1550      1551
      1544      1547      1550      1552      1544      1547      1550      1553
      1545      1544      1547      1548      1545      1544      1547      1549
      1545      1544      1547      1550      1546      1544      1547      1548
      1546      1544      1547      1549      1546      1544      1547      1550
      1547      1550      1553      1554      1547      1550      1553      1555
      1547      1550      1553      1556      1548      1547      1550      1551
      1548      1547      1550      1552      1548      1547      1550      1553
      1549      1547      1550      1551      1549      1547      1550      1552
      1549      1547      1550      1553      1550      1553      1556      1557
      1550      1553      1556      1558      1550      1553      1556      1559
      1551      1550      1553      1554      1551      1550      1553      1555
      1551      1550      1553      1556      1552      1550      1553      1554
      1552      1550      1553      1555      1552      1550      1553      1556
      1553      1556      1559      1560      1553      1556      1559      1561
      1553      1556      1559      1562      1554      1553      1556      1557
      1554      1553      1556      1558      1554      1553      1556      1559
      1555      1553      1556      1557      1555      1553      1556      1558
      1555      1553      1556      1559      1556      1559      1562      1563
      1556      1559      1562      1564      1556      1559      1562      1565
      1557      1556      1559      1560      1557      1556      1559      1561
      1557      1556      1559      1562      1558      1556      1559      1560
      1558      1556      1559      1561      1558      1556      1559      1562
      1560      1559      1562      1563      1560      1559      1562      1564
      1560      1559      1562      1565      1561      1559      1562      1563
      1561      1559      1562      1564      1561      1559      1562      1565
      1566      1569      1572      1573      1566      1569      1572      1574
      1566      1569      1572      1575      1567      1566      1569      1570
      1567      1566      1569      1571      1567      1566      1569      1572
      1568      1566      1569      1570      1568      1566      1569      1571
      1568      1566      1569      1572      1569      1572      1575      1576
      1569      1572      1575      1577      1569      1572      1575      1578
      1570      1569      1572      1573      1570      1569      1572      1574
      1570      1569      1572      1575      1571      1569      1572      1573
      1571      1569      1572      1574      1571      1569      1572      1575
      1572      1575      1578      1579      1572      1575      1578      1580
      1572      1575      1578      1581      1573      1572      1575      1576
      1573      1572      1575      1577      1573      1572      1575      1578
      1574      1572      1575      1576      1574      1572      1575      1577
      1574      1572      1575      1578      1575      1578      1581      1582
      1575      1578      1581      1583      1575      1578      1581      1584
      1576      1575      1578      1579      1576      1575      1578      1580
      1576      1575      1578      1581      1577      1575      1578      1579
      1577      1575      1578      1580      1577      1575      1578      1581
      1578      1581      1584      1585      1578      1581      1584      1586
      1578      1581      1584      1587      1579      1578      1581      1582
      1579      1578      1581      1583      1579      1578      1581      1584
      1580      1578      1581      1582      1580      1578      1581      1583
      1580      1578      1581      1584      1581      1584      1587      1588
      1581      1584      1587      1589      1581      1584      1587      1590
      1582      1581      1584      1585      1582      1581      1584      1586
      1582      1581      1584      1587      1583      1581      1584      1585
      1583      1581      1584      1586      1583      1581      1584      1587
      1584      1587      1590      1591      1584      1587      1590      1592
      1584      1587      1590      1593      1585      1584      1587      1588
      1585      1584      1587      1589      1585      1584      1587      1590
      1586      1584      1587      1588      1586      1584      1587      1589
      1586      1584      1587      1590      1587      1590      1593      1594
      1587      1590      1593      1595      1587      1590      1593      1596
      1588      1587      1590      1591      1588      1587      1590      1592
      1588      1587      1590      1593      1589      1587      1590      1591
      1589      1587      1590      1592      1589      1587      1590      1593
      1590      1593      1596      1597      1590      1593      1596      1598
      1590      1593      1596      1599      1591      1590      1593      1594
      1591      1590      1593      1595      1591      1590      1593      1596
      1592      1590      1593      1594      1592      1590      1593      1595
      1592      1590      1593      1596      1593      1596      1599      1600
      1593      1596      1599      1601      1593      1596      1599      1602
      1594      1593      1596      1597      1594      1593      1596      1598
      1594      1593      1596      1599      1595      1593      1596      1597
      1595      1593      1596      1598      1595      1593      1596      1599
      1596      1599      1602      1603      1596      1599      1602      1604
      1596      1599      1602      1605      1597      1596      1599      1600
      1597      1596      1599      1601      1597      1596      1599      1602
      1598      1596      1599      1600      1598      1596      1599      1601
      1598      1596      1599      1602      1599      1602      1605      1606
      1599      1602      1605      1607      1599      1602      1605      1608
      1600      1599      1602      1603      1600      1599      1602      1604
      1600      1599      1602      1605      1601      1599      1602      1603
      1601      1599      1602      1604      1601      1599      1602      1605
      1603      1602      1605      1606      1603      1602      1605      1607
      1603      1602      1605      1608      1604      1602      1605      1606
      1604      1602      1605      1607      1604      1602      1605      1608
      1609      1610      1625      1626      1609      1610      1625      1627
      1609      1610      1625      1631      1610      1609      1613      1614
      1610      1609      1613      1615      1610      1609      1613      1616
      1610      1609      1617      1618      1610      1609      1617      1619
      1610      1609      1617      1620      1610      1609      1621      1622
      1610      1609      1621      1623      1610      1609      1621      1624
      1610      1625      1631      1628      1611      1610      1609      1613
      1611      1610      1609      1617      1611      1610      1609      1621
      1611      1610      1625      1626      1611      1610      1625      1627
      1611      1610      1625      1631      1612      1610      1609      1613
      1612      1610      1609      1617      1612      1610      1609      1621
      1612      1610      1625      1626      1612      1610      1625      1627
      1612      1610      1625      1631      1613      1609      1610      1625
      1613      1609      1617      1618      1613      1609      1617      1619
      1613      1609      1617      1620      1613      1609      1621      1622
      1613      1609      1621      1623      1613      1609      1621      1624
      1614      1613      1609      1617      1614      1613      1609      1621
      1615      1613      1609      1617      1615      1613      1609      1621
      1616      1613      1609      1617      1616      1613      1609      1621
      1617      1609      1610      1625      1617      1609      1621      1622
      1617      1609      1621      1623      1617      1609      1621      1624
      1618      1617      1609      1621      1619      1617      1609      1621
      1620      1617      1609      1621      1621      1609      1610      1625
      1625      1631      1628      1629      1625      1631      1628      1630
      1625      1631      1628      1632      1626      1625      1631      1628
      1627      1625      1631      1628      1628      1632      1633      1634
      1628      1632      1633      1635      1628      1632      1633      1636
      1629      1628      1632      1633      1630      1628      1632      1633
      1631      1628      1632      1633      1632      1633      1636      1637
      1632      1633      1636      1638      1632      1633      1636      1644
      1633      1636      1638      1639      1633      1636      1644      1645
      1633      1636      1644      1646      1633      1636      1644      1647
      1634      1633      1636      1637      1634      1633      1636      1638
      1634      1633      1636      1644      1635      1633      1636      1637
      1635      1633      1636      1638      1635      1633      1636      1644
      1636      1638      1639      1640      1636      1638      1639      1641
      1636      1644      1647      1648      1637      1636      1638      1639
      1637      1636      1644      1645      1637      1636      1644      1646
      1637      1636      1644      1647      1638      1636      1644      1645
      1638      1636      1644      1646      1638      1636      1644      1647
      1638      1639      1641      1642      1638      1639      1641      1643
      1638      1639      1641      1653      1639      1638      1636      1644
      1639      1641      1653      1654      1639      1641      1653      1655
      1639      1641      1653      1656      1640      1639      1641      1642
      1640      1639      1641      1643      1640      1639      1641      1653
      1641      1653      1656      1657      1641      1653      1656      1658
      1641      1653      1656      1659      1642      1641      1653      1654
      1642      1641      1653      1655      1642      1641      1653      1656
      1643      1641      1653      1654      1643      1641      1653      1655
      1643      1641      1653      1656      1644      1647      1648      1649
      1644      1647      1648      1650      1645      1644      1647      1648
      1646      1644      1647      1648      1647      1648      1650      1651
      1647      1648      1650      1652      1647      1648      1650      1700
      1648      1650      1700      1701      1648      1650      1700      1702
      1648      1650      1700      1703      1649      1648      1650      1651
      1649      1648      1650      1652      1649      1648      1650      1700
      1650      1700      1703      1704      1650      1700      1703      1705
      1650      1700      1703      1706      1651      1650      1700      1701
      1651      1650      1700      1702      1651      1650      1700      1703
      1652      1650      1700      1701      1652      1650      1700      1702
      1652      1650      1700      1703      1653      1656      1659      1660
      1653      1656      1659      1661      1653      1656      1659      1662
      1654      1653      1656      1657      1654      1653      1656      1658
      1654      1653      1656      1659      1655      1653      1656      1657
      1655      1653      1656      1658      1655      1653      1656      1659
      1656      1659      1662      1663      1656      1659      1662      1664
      1656      1659      1662      1665      1657      1656      1659      1660
      1657      1656      1659      1661      1657      1656      1659      1662
      1658      1656      1659      1660      1658      1656      1659      1661
      1658      1656      1659      1662      1659      1662      1665      1666
      1659      1662      1665      1667      1659      1662      1665      1668
      1660      1659      1662      1663      1660      1659      1662      1664
      1660      1659      1662      1665      1661      1659      1662      1663
      1661      1659      1662      1664      1661      1659      1662      1665
      1662      1665      1668      1669      1662      1665      1668      1670
      1662      1665      1668      1671      1663      1662      1665      1666
      1663      1662      1665      1667      1663      1662      1665      1668
      1664      1662      1665      1666      1664      1662      1665      1667
      1664      1662      1665      1668      1665      1668      1671      1672
      1665      1668      1671      1673      1666      1665      1668      1669
      1666      1665      1668      1670      1666      1665      1668      1671
      1667      1665      1668      1669      1667      1665      1668      1670
      1667      1665      1668      1671      1668      1671      1673      1674
      1668      1671      1673      1675      1669      1668      1671      1672
      1669      1668      1671      1673      1670      1668      1671      1672
      1670      1668      1671      1673      1671      1673      1675      1676
      1671      1673      1675      1677      1671      1673      1675      1678
      1672      1671      1673      1674      1672      1671      1673      1675
      1673      1675      1678      1679      1673      1675      1678      1680
      1673      1675      1678      1681      1674      1673      1675      1676
      1674      1673      1675      1677      1674      1673      1675      1678
      1675      1678      1681      1682      1675      1678      1681      1683
      1675      1678      1681      1684      1676      1675      1678      1679
      1676      1675      1678      1680      1676      1675      1678      1681
      1677      1675      1678      1679      1677      1675      1678      1680
      1677      1675      1678      1681      1678      1681      1684      1685
      1678      1681      1684      1686      1678      1681      1684      1687
      1679      1678      1681      1682      1679      1678      1681      1683
      1679      1678      1681      1684      1680      1678      1681      1682
      1680      1678      1681      1683      1680      1678      1681      1684
      1681      1684      1687      1688      1681      1684      1687      1689
      1681      1684      1687      1690      1682      1681      1684      1685
      1682      1681      1684      1686      1682      1681      1684      1687
      1683      1681      1684      1685      1683      1681      1684      1686
      1683      1681      1684      1687      1684      1687      1690      1691
      1684      1687      1690      1692      1684      1687      1690      1693
      1685      1684      1687      1688      1685      1684      1687      1689
      1685      1684      1687      1690      1686      1684      1687      1688
      1686      1684      1687      1689      1686      1684      1687      1690
      1687      1690      1693      1694      1687      1690      1693      1695
      1687      1690      1693      1696      1688      1687      1690      1691
      1688      1687      1690      1692      1688      1687      1690      1693
      1689      1687      1690      1691      1689      1687      1690      1692
      1689      1687      1690      1693      1690      1693      1696      1697
      1690      1693      1696      1698      1690      1693      1696      1699
      1691      1690      1693      1694      1691      1690      1693      1695
      1691      1690      1693      1696      1692      1690      1693      1694
      1692      1690      1693      1695      1692      1690      1693      1696
      1694      1693      1696      1697      1694      1693      1696      1698
      1694      1693      1696      1699      1695      1693      1696      1697
      1695      1693      1696      1698      1695      1693      1696      1699
      1700      1703      1706      1707      1700      1703      1706      1708
      1700      1703      1706      1709      1701      1700      1703      1704
      1701      1700      1703      1705      1701      1700      1703      1706
      1702      1700      1703      1704      1702      1700      1703      1705
      1702      1700      1703      1706      1703      1706      1709      1710
      1703      1706      1709      1711      1703      1706      1709      1712
      1704      1703      1706      1707      1704      1703      1706      1708
      1704      1703      1706      1709      1705      1703      1706      1707
      1705      1703      1706      1708      1705      1703      1706      1709
      1706      1709      1712      1713      1706      1709      1712      1714
      1706      1709      1712      1715      1707      1706      1709      1710
      1707      1706      1709      1711      1707      1706      1709      1712
      1708      1706      1709      1710      1708      1706      1709      1711
      1708      1706      1709      1712      1709      1712      1715      1716
      1709      1712      1715      1717      1709      1712      1715      1718
      1710      1709      1712      1713      1710      1709      1712      1714
      1710      1709      1712      1715      1711      1709      1712      1713
      1711      1709      1712      1714      1711      1709      1712      1715
      1712      1715      1718      1719      1712      1715      1718      1720
      1712      1715      1718      1721      1713      1712      1715      1716
      1713      1712      1715      1717      1713      1712      1715      1718
      1714      1712      1715      1716      1714      1712      1715      1717
      1714      1712      1715      1718      1715      1718      1721      1722
      1715      1718      1721      1723      1715      1718      1721      1724
      1716      1715      1718      1719      1716      1715      1718      1720
      1716      1715      1718      1721      1717      1715      1718      1719
      1717      1715      1718      1720      1717      1715      1718      1721
      1718      1721      1724      1725      1718      1721      1724      1726
      1718      1721      1724      1727      1719      1718      1721      1722
      1719      1718      1721      1723      1719      1718      1721      1724
      1720      1718      1721      1722      1720      1718      1721      1723
      1720      1718      1721      1724      1721      1724      1727      1728
      1721      1724      1727      1729      1721      1724      1727      1730
      1722      1721      1724      1725      1722      1721      1724      1726
      1722      1721      1724      1727      1723      1721      1724      1725
      1723      1721      1724      1726      1723      1721      1724      1727
      1724      1727      1730      1731      1724      1727      1730      1732
      1724      1727      1730      1733      1725      1724      1727      1728
      1725      1724      1727      1729      1725      1724      1727      1730
      1726      1724      1727      1728      1726      1724      1727      1729
      1726      1724      1727      1730      1727      1730      1733      1734
      1727      1730      1733      1735      1727      1730      1733      1736
      1728      1727      1730      1731      1728      1727      1730      1732
      1728      1727      1730      1733      1729      1727      1730      1731
      1729      1727      1730      1732      1729      1727      1730      1733
      1730      1733      1736      1737      1730      1733      1736      1738
      1730      1733      1736      1739      1731      1730      1733      1734
      1731      1730      1733      1735      1731      1730      1733      1736
      1732      1730      1733      1734      1732      1730      1733      1735
      1732      1730      1733      1736      1733      1736      1739      1740
      1733      1736      1739      1741      1733      1736      1739      1742
      1734      1733      1736      1737      1734      1733      1736      1738
      1734      1733      1736      1739      1735      1733      1736      1737
      1735      1733      1736      1738      1735      1733      1736      1739
      1737      1736      1739      1740      1737      1736      1739      1741
      1737      1736      1739      1742      1738      1736      1739      1740
      1738      1736      1739      1741      1738      1736      1739      1742
      1743      1744      1759      1760      1743      1744      1759      1761
      1743      1744      1759      1765      1744      1743      1747      1748
      1744      1743      1747      1749      1744      1743      1747      1750
      1744      1743      1751      1752      1744      1743      1751      1753
      1744      1743      1751      1754      1744      1743      1755      1756
      1744      1743      1755      1757      1744      1743      1755      1758
      1744      1759      1765      1762      1745      1744      1743      1747
      1745      1744      1743      1751      1745      1744      1743      1755
      1745      1744      1759      1760      1745      1744      1759      1761
      1745      1744      1759      1765      1746      1744      1743      1747
      1746      1744      1743      1751      1746      1744      1743      1755
      1746      1744      1759      1760      1746      1744      1759      1761
      1746      1744      1759      1765      1747      1743      1744      1759
      1747      1743      1751      1752      1747      1743      1751      1753
      1747      1743      1751      1754      1747      1743      1755      1756
      1747      1743      1755      1757      1747      1743      1755      1758
      1748      1747      1743      1751      1748      1747      1743      1755
      1749      1747      1743      1751      1749      1747      1743      1755
      1750      1747      1743      1751      1750      1747      1743      1755
      1751      1743      1744      1759      1751      1743      1755      1756
      1751      1743      1755      1757      1751      1743      1755      1758
      1752      1751      1743      1755      1753      1751      1743      1755
      1754      1751      1743      1755      1755      1743      1744      1759
      1759      1765      1762      1763      1759      1765      1762      1764
      1759      1765      1762      1766      1760      1759      1765      1762
      1761      1759      1765      1762      1762      1766      1767      1768
      1762      1766      1767      1769      1762      1766      1767      1770
      1763      1762      1766      1767      1764      1762      1766      1767
      1765      1762      1766      1767      1766      1767      1770      1771
      1766      1767      1770      1772      1766      1767      1770      1778
      1767      1770      1772      1773      1767      1770      1778      1779
      1767      1770      1778      1780      1767      1770      1778      1781
      1768      1767      1770      1771      1768      1767      1770      1772
      1768      1767      1770      1778      1769      1767      1770      1771
      1769      1767      1770      1772      1769      1767      1770      1778
      1770      1772      1773      1774      1770      1772      1773      1775
      1770      1778      1781      1782      1771      1770      1772      1773
      1771      1770      1778      1779      1771      1770      1778      1780
      1771      1770      1778      1781      1772      1770      1778      1779
      1772      1770      1778      1780      1772      1770      1778      1781
      1772      1773      1775      1776      1772      1773      1775      1777
      1772      1773      1775      1787      1773      1772      1770      1778
      1773      1775      1787      1788      1773      1775      1787      1789
      1773      1775      1787      1790      1774      1773      1775      1776
      1774      1773      1775      1777      1774      1773      1775      1787
      1775      1787      1790      1791      1775      1787      1790      1792
      1775      1787      1790      1793      1776      1775      1787      1788
      1776      1775      1787      1789      1776      1775      1787      1790
      1777      1775      1787      1788      1777      1775      1787      1789
      1777      1775      1787      1790      1778      1781      1782      1783
      1778      1781      1782      1784      1779      1778      1781      1782
      1780      1778      1781      1782      1781      1782      1784      1785
      1781      1782      1784      1786      1781      1782      1784      1834
      1782      1784      1834      1835      1782      1784      1834      1836
      1782      1784      1834      1837      1783      1782      1784      1785
      1783      1782      1784      1786      1783      1782      1784      1834
      1784      1834      1837      1838      1784      1834      1837      1839
      1784      1834      1837      1840      1785      1784      1834      1835
      1785      1784      1834      1836      1785      1784      1834      1837
      1786      1784      1834      1835      1786      1784      1834      1836
      1786      1784      1834      1837      1787      1790      1793      1794
      1787      1790      1793      1795      1787      1790      1793      1796
      1788      1787      1790      1791      1788      1787      1790      1792
      1788      1787      1790      1793      1789      1787      1790      1791
      1789      1787      1790      1792      1789      1787      1790      1793
      1790      1793      1796      1797      1790      1793      1796      1798
      1790      1793      1796      1799      1791      1790      1793      1794
      1791      1790      1793      1795      1791      1790      1793      1796
      1792      1790      1793      1794      1792      1790      1793      1795
      1792      1790      1793      1796      1793      1796      1799      1800
      1793      1796      1799      1801      1793      1796      1799      1802
      1794      1793      1796      1797      1794      1793      1796      1798
      1794      1793      1796      1799      1795      1793      1796      1797
      1795      1793      1796      1798      1795      1793      1796      1799
      1796      1799      1802      1803      1796      1799      1802      1804
      1796      1799      1802      1805      1797      1796      1799      1800
      1797      1796      1799      1801      1797      1796      1799      1802
      1798      1796      1799      1800      1798      1796      1799      1801
      1798      1796      1799      1802      1799      1802      1805      1806
      1799      1802      1805      1807      1800      1799      1802      1803
      1800      1799      1802      1804      1800      1799      1802      1805
      1801      1799      1802      1803      1801      1799      1802      1804
      1801      1799      1802      1805      1802      1805      1807      1808
      1802      1805      1807      1809      1803      1802      1805      1806
      1803      1802      1805      1807      1804      1802      1805      1806
      1804      1802      1805      1807      1805      1807      1809      1810
      1805      1807      1809      1811      1805      1807      1809      1812
      1806      1805      1807      1808      1806      1805      1807      1809
      1807      1809      1812      1813      1807      1809      1812      1814
      1807      1809      1812      1815      1808      1807      1809      1810
      1808      1807      1809      1811      1808      1807      1809      1812
      1809      1812      1815      1816      1809      1812      1815      1817
      1809      1812      1815      1818      1810      1809      1812      1813
      1810      1809      1812      1814      1810      1809      1812      1815
      1811      1809      1812      1813      1811      1809      1812      1814
      1811      1809      1812      1815      1812      1815      1818      1819
      1812      1815      1818      1820      1812      1815      1818      1821
      1813      1812      1815      1816      1813      1812      1815      1817
      1813      1812      1815      1818      1814      1812      1815      1816
      1814      1812      1815      1817      1814      1812      1815      1818
      1815      1818      1821      1822      1815      1818      1821      1823
      1815      1818      1821      1824      1816      1815      1818      1819
      1816      1815      1818      1820      1816      1815      1818      1821
      1817      1815      1818      1819      1817      1815      1818      1820
      1817      1815      1818      1821      1818      1821      1824      1825
      1818      1821      1824      1826      1818      1821      1824      1827
      1819      1818      1821      1822      1819      1818      1821      1823
      1819      1818      1821      1824      1820      1818      1821      1822
      1820      1818      1821      1823      1820      1818      1821      1824
      1821      1824      1827      1828      1821      1824      1827      1829
      1821      1824      1827      1830      1822      1821      1824      1825
      1822      1821      1824      1826      1822      1821      1824      1827
      1823      1821      1824      1825      1823      1821      1824      1826
      1823      1821      1824      1827      1824      1827      1830      1831
      1824      1827      1830      1832      1824      1827      1830      1833
      1825      1824      1827      1828      1825      1824      1827      1829
      1825      1824      1827      1830      1826      1824      1827      1828
      1826      1824      1827      1829      1826      1824      1827      1830
      1828      1827      1830      1831      1828      1827      1830      1832
      1828      1827      1830      1833      1829      1827      1830      1831
      1829      1827      1830      1832      1829      1827      1830      1833
      1834      1837      1840      1841      1834      1837      1840      1842
      1834      1837      1840      1843      1835      1834      1837      1838
      1835      1834      1837      1839      1835      1834      1837      1840
      1836      1834      1837      1838      1836      1834      1837      1839
      1836      1834      1837      1840      1837      1840      1843      1844
      1837      1840      1843      1845      1837      1840      1843      1846
      1838      1837      1840      1841      1838      1837      1840      1842
      1838      1837      1840      1843      1839      1837      1840      1841
      1839      1837      1840      1842      1839      1837      1840      1843
      1840      1843      1846      1847      1840      1843      1846      1848
      1840      1843      1846      1849      1841      1840      1843      1844
      1841      1840      1843      1845      1841      1840      1843      1846
      1842      1840      1843      1844      1842      1840      1843      1845
      1842      1840      1843      1846      1843      1846      1849      1850
      1843      1846      1849      1851      1843      1846      1849      1852
      1844      1843      1846      1847      1844      1843      1846      1848
      1844      1843      1846      1849      1845      1843      1846      1847
      1845      1843      1846      1848      1845      1843      1846      1849
      1846      1849      1852      1853      1846      1849      1852      1854
      1846      1849      1852      1855      1847      1846      1849      1850
      1847      1846      1849      1851      1847      1846      1849      1852
      1848      1846      1849      1850      1848      1846      1849      1851
      1848      1846      1849      1852      1849      1852      1855      1856
      1849      1852      1855      1857      1849      1852      1855      1858
      1850      1849      1852      1853      1850      1849      1852      1854
      1850      1849      1852      1855      1851      1849      1852      1853
      1851      1849      1852      1854      1851      1849      1852      1855
      1852      1855      1858      1859      1852      1855      1858      1860
      1852      1855      1858      1861      1853      1852      1855      1856
      1853      1852      1855      1857      1853      1852      1855      1858
      1854      1852      1855      1856      1854      1852      1855      1857
      1854      1852      1855      1858      1855      1858      1861      1862
      1855      1858      1861      1863      1855      1858      1861      1864
      1856      1855      1858      1859      1856      1855      1858      1860
      1856      1855      1858      1861      1857      1855      1858      1859
      1857      1855      1858      1860      1857      1855      1858      1861
      1858      1861      1864      1865      1858      1861      1864      1866
      1858      1861      1864      1867      1859      1858      1861      1862
      1859      1858      1861      1863      1859      1858      1861      1864
      1860      1858      1861      1862      1860      1858      1861      1863
      1860      1858      1861      1864      1861      1864      1867      1868
      1861      1864      1867      1869      1861      1864      1867      1870
      1862      1861      1864      1865      1862      1861      1864      1866
      1862      1861      1864      1867      1863      1861      1864      1865
      1863      1861      1864      1866      1863      1861      1864      1867
      1864      1867      1870      1871      1864      1867      1870      1872
      1864      1867      1870      1873      1865      1864      1867      1868
      1865      1864      1867      1869      1865      1864      1867      1870
      1866      1864      1867      1868      1866      1864      1867      1869
      1866      1864      1867      1870      1867      1870      1873      1874
      1867      1870      1873      1875      1867      1870      1873      1876
      1868      1867      1870      1871      1868      1867      1870      1872
      1868      1867      1870      1873      1869      1867      1870      1871
      1869      1867      1870      1872      1869      1867      1870      1873
      1871      1870      1873      1874      1871      1870      1873      1875
      1871      1870      1873      1876      1872      1870      1873      1874
      1872      1870      1873      1875      1872      1870      1873      1876
      1877      1878      1893      1894      1877      1878      1893      1895
      1877      1878      1893      1899      1878      1877      1881      1882
      1878      1877      1881      1883      1878      1877      1881      1884
      1878      1877      1885      1886      1878      1877      1885      1887
      1878      1877      1885      1888      1878      1877      1889      1890
      1878      1877      1889      1891      1878      1877      1889      1892
      1878      1893      1899      1896      1879      1878      1877      1881
      1879      1878      1877      1885      1879      1878      1877      1889
      1879      1878      1893      1894      1879      1878      1893      1895
      1879      1878      1893      1899      1880      1878      1877      1881
      1880      1878      1877      1885      1880      1878      1877      1889
      1880      1878      1893      1894      1880      1878      1893      1895
      1880      1878      1893      1899      1881      1877      1878      1893
      1881      1877      1885      1886      1881      1877      1885      1887
      1881      1877      1885      1888      1881      1877      1889      1890
      1881      1877      1889      1891      1881      1877      1889      1892
      1882      1881      1877      1885      1882      1881      1877      1889
      1883      1881      1877      1885      1883      1881      1877      1889
      1884      1881      1877      1885      1884      1881      1877      1889
      1885      1877      1878      1893      1885      1877      1889      1890
      1885      1877      1889      1891      1885      1877      1889      1892
      1886      1885      1877      1889      1887      1885      1877      1889
      1888      1885      1877      1889      1889      1877      1878      1893
      1893      1899      1896      1897      1893      1899      1896      1898
      1893      1899      1896      1900      1894      1893      1899      1896
      1895      1893      1899      1896      1896      1900      1901      1902
      1896      1900      1901      1903      1896      1900      1901      1904
      1897      1896      1900      1901      1898      1896      1900      1901
      1899      1896      1900      1901      1900      1901      1904      1905
      1900      1901      1904      1906      1900      1901      1904      1912
      1901      1904      1906      1907      1901      1904      1912      1913
      1901      1904      1912      1914      1901      1904      1912      1915
      1902      1901      1904      1905      1902      1901      1904      1906
      1902      1901      1904      1912      1903      1901      1904      1905
      1903      1901      1904      1906      1903      1901      1904      1912
      1904      1906      1907      1908      1904      1906      1907      1909
      1904      1912      1915      1916      1905      1904      1906      1907
      1905      1904      1912      1913      1905      1904      1912      1914
      1905      1904      1912      1915      1906      1904      1912      1913
      1906      1904      1912      1914      1906      1904      1912      1915
      1906      1907      1909      1910      1906      1907      1909      1911
      1906      1907      1909      1921      1907      1906      1904      1912
      1907      1909      1921      1922      1907      1909      1921      1923
      1907      1909      1921      1924      1908      1907      1909      1910
      1908      1907      1909      1911      1908      1907      1909      1921
      1909      1921      1924      1925      1909      1921      1924      1926
      1909      1921      1924      1927      1910      1909      1921      1922
      1910      1909      1921      1923      1910      1909      1921      1924
      1911      1909      1921      1922      1911      1909      1921      1923
      1911      1909      1921      1924      1912      1915      1916      1917
      1912      1915      1916      1918      1913      1912      1915      1916
      1914      1912      1915      1916      1915      1916      1918      1919
      1915      1916      1918      1920      1915      1916      1918      1968
      1916      1918      1968      1969      1916      1918      1968      1970
      1916      1918      1968      1971      1917      1916      1918      1919
      1917      1916      1918      1920      1917      1916      1918      1968
      1918      1968      1971      1972      1918      1968      1971      1973
      1918      1968      1971      1974      1919      1918      1968      1969
      1919      1918      1968      1970      1919      1918      1968      1971
      1920      1918      1968      1969      1920      1918      1968      1970
      1920      1918      1968      1971      1921      1924      1927      1928
      1921      1924      1927      1929      1921      1924      1927      1930
      1922      1921      1924      1925      1922      1921      1924      1926
      1922      1921      1924      1927      1923      1921      1924      1925
      1923      1921      1924      1926      1923      1921      1924      1927
      1924      1927      1930      1931      1924      1927      1930      1932
      1924      1927      1930      1933      1925      1924      1927      1928
      1925      1924      1927      1929      1925      1924      1927      1930
      1926      1924      1927      1928      1926      1924      1927      1929
      1926      1924      1927      1930      1927      1930      1933      1934
      1927      1930      1933      1935      1927      1930      1933      1936
      1928      1927      1930      1931      1928      1927      1930      1932
      1928      1927      1930      1933      1929      1927      1930      1931
      1929      1927      1930      1932      1929      1927      1930      1933
      1930      1933      1936      1937      1930      1933      1936      1938
      1930      1933      1936      1939      1931      1930      1933      1934
      1931      1930      1933      1935      1931      1930      1933      1936
      1932      1930      1933      1934      1932      1930      1933      1935
      1932      1930      1933      1936      1933      1936      1939      1940
      1933      1936      1939      1941      1934      1933      1936      1937
      1934      1933      1936      1938      1934      1933      1936      1939
      1935      1933      1936      1937      1935      1933      1936      1938
      1935      1933      1936      1939      1936      1939      1941      1942
      1936      1939      1941      1943      1937      1936      1939      1940
      1937      1936      1939      1941      1938      1936      1939      1940
      1938      1936      1939      1941      1939      1941      1943      1944
      1939      1941      1943      1945      1939      1941      1943      1946
      1940      1939      1941      1942      1940      1939      1941      1943
      1941      1943      1946      1947      1941      1943      1946      1948
      1941      1943      1946      1949      1942      1941      1943      1944
      1942      1941      1943      1945      1942      1941      1943      1946
      1943      1946      1949      1950      1943      1946      1949      1951
      1943      1946      1949      1952      1944      1943      1946      1947
      1944      1943      1946      1948      1944      1943      1946      1949
      1945      1943      1946      1947      1945      1943      1946      1948
      1945      1943      1946      1949      1946      1949      1952      1953
      1946      1949      1952      1954      1946      1949      1952      1955
      1947      1946      1949      1950      1947      1946      1949      1951
      1947      1946      1949      1952      1948      1946      1949      1950
      1948      1946      1949      1951      1948      1946      1949      1952
      1949      1952      1955      1956      1949      1952      1955      1957
      1949      1952      1955      1958      1950      1949      1952      1953
      1950      1949      1952      1954      1950      1949      1952      1955
      1951      1949      1952      1953      1951      1949      1952      1954
      1951      1949      1952      1955      1952      1955      1958      1959
      1952      1955      1958      1960      1952      1955      1958      1961
      1953      1952      1955      1956      1953      1952      1955      1957
      1953      1952      1955      1958      1954      1952      1955      1956
      1954      1952      1955      1957      1954      1952      1955      1958
      1955      1958      1961      1962      1955      1958      1961      1963
      1955      1958      1961      1964      1956      1955      1958      1959
      1956      1955      1958      1960      1956      1955      1958      1961
      1957      1955      1958      1959      1957      1955      1958      1960
      1957      1955      1958      1961      1958      1961      1964      1965
      1958      1961      1964      1966      1958      1961      1964      1967
      1959      1958      1961      1962      1959      1958      1961      1963
      1959      1958      1961      1964      1960      1958      1961      1962
      1960      1958      1961      1963      1960      1958      1961      1964
      1962      1961      1964      1965      1962      1961      1964      1966
      1962      1961      1964      1967      1963      1961      1964      1965
      1963      1961      1964      1966      1963      1961      1964      1967
      1968      1971      1974      1975      1968      1971      1974      1976
      1968      1971      1974      1977      1969      1968      1971      1972
      1969      1968      1971      1973      1969      1968      1971      1974
      1970      1968      1971      1972      1970      1968      1971      1973
      1970      1968      1971      1974      1971      1974      1977      1978
      1971      1974      1977      1979      1971      1974      1977      1980
      1972      1971      1974      1975      1972      1971      1974      1976
      1972      1971      1974      1977      1973      1971      1974      1975
      1973      1971      1974      1976      1973      1971      1974      1977
      1974      1977      1980      1981      1974      1977      1980      1982
      1974      1977      1980      1983      1975      1974      1977      1978
      1975      1974      1977      1979      1975      1974      1977      1980
      1976      1974      1977      1978      1976      1974      1977      1979
      1976      1974      1977      1980      1977      1980      1983      1984
      1977      1980      1983      1985      1977      1980      1983      1986
      1978      1977      1980      1981      1978      1977      1980      1982
      1978      1977      1980      1983      1979      1977      1980      1981
      1979      1977      1980      1982      1979      1977      1980      1983
      1980      1983      1986      1987      1980      1983      1986      1988
      1980      1983      1986      1989      1981      1980      1983      1984
      1981      1980      1983      1985      1981      1980      1983      1986
      1982      1980      1983      1984      1982      1980      1983      1985
      1982      1980      1983      1986      1983      1986      1989      1990
      1983      1986      1989      1991      1983      1986      1989      1992
      1984      1983      1986      1987      1984      1983      1986      1988
      1984      1983      1986      1989      1985      1983      1986      1987
      1985      1983      1986      1988      1985      1983      1986      1989
      1986      1989      1992      1993      1986      1989      1992      1994
      1986      1989      1992      1995      1987      1986      1989      1990
      1987      1986      1989      1991      1987      1986      1989      1992
      1988      1986      1989      1990      1988      1986      1989      1991
      1988      1986      1989      1992      1989      1992      1995      1996
      1989      1992      1995      1997      1989      1992      1995      1998
      1990      1989      1992      1993      1990      1989      1992      1994
      1990      1989      1992      1995      1991      1989      1992      1993
      1991      1989      1992      1994      1991      1989      1992      1995
      1992      1995      1998      1999      1992      1995      1998      2000
      1992      1995      1998      2001      1993      1992      1995      1996
      1993      1992      1995      1997      1993      1992      1995      1998
      1994      1992      1995      1996      1994      1992      1995      1997
      1994      1992      1995      1998      1995      1998      2001      2002
      1995      1998      2001      2003      1995      1998      2001      2004
      1996      1995      1998      1999      1996      1995      1998      2000
      1996      1995      1998      2001      1997      1995      1998      1999
      1997      1995      1998      2000      1997      1995      1998      2001
      1998      2001      2004      2005      1998      2001      2004      2006
      1998      2001      2004      2007      1999      1998      2001      2002
      1999      1998      2001      2003      1999      1998      2001      2004
      2000      1998      2001      2002      2000      1998      2001      2003
      2000      1998      2001      2004      2001      2004      2007      2008
      2001      2004      2007      2009      2001      2004      2007      2010
      2002      2001      2004      2005      2002      2001      2004      2006
      2002      2001      2004      2007      2003      2001      2004      2005
      2003      2001      2004      2006      2003      2001      2004      2007
      2005      2004      2007      2008      2005      2004      2007      2009
      2005      2004      2007      2010      2006      2004      2007      2008
      2006      2004      2007      2009      2006      2004      2007      2010
      2011      2012      2027      2028      2011      2012      2027      2029
      2011      2012      2027      2033      2012      2011      2015      2016
      2012      2011      2015      2017      2012      2011      2015      2018
      2012      2011      2019      2020      2012      2011      2019      2021
      2012      2011      2019      2022      2012      2011      2023      2024
      2012      2011      2023      2025      2012      2011      2023      2026
      2012      2027      2033      2030      2013      2012      2011      2015
      2013      2012      2011      2019      2013      2012      2011      2023
      2013      2012      2027      2028      2013      2012      2027      2029
      2013      2012      2027      2033      2014      2012      2011      2015
      2014      2012      2011      2019      2014      2012      2011      2023
      2014      2012      2027      2028      2014      2012      2027      2029
      2014      2012      2027      2033      2015      2011      2012      2027
      2015      2011      2019      2020      2015      2011      2019      2021
      2015      2011      2019      2022      2015      2011      2023      2024
      2015      2011      2023      2025      2015      2011      2023      2026
      2016      2015      2011      2019      2016      2015      2011      2023
      2017      2015      2011      2019      2017      2015      2011      2023
      2018      2015      2011      2019      2018      2015      2011      2023
      2019      2011      2012      2027      2019      2011      2023      2024
      2019      2011      2023      2025      2019      2011      2023      2026
      2020      2019      2011      2023      2021      2019      2011      2023
      2022      2019      2011      2023      2023      2011      2012      2027
      2027      2033      2030      2031      2027      2033      2030      2032
      2027      2033      2030      2034      2028      2027      2033      2030
      2029      2027      2033      2030      2030      2034      2035      2036
      2030      2034      2035      2037      2030      2034      2035      2038
      2031      2030      2034      2035      2032      2030      2034      2035
      2033      2030      2034      2035      2034      2035      2038      2039
      2034      2035      2038      2040      2034      2035      2038      2046
      2035      2038      2040      2041      2035      2038      2046      2047
      2035      2038      2046      2048      2035      2038      2046      2049
      2036      2035      2038      2039      2036      2035      2038      2040
      2036      2035      2038      2046      2037      2035      2038      2039
      2037      2035      2038      2040      2037      2035      2038      2046
      2038      2040      2041      2042      2038      2040      2041      2043
      2038      2046      2049      2050      2039      2038      2040      2041
      2039      2038      2046      2047      2039      2038      2046      2048
      2039      2038      2046      2049      2040      2038      2046      2047
      2040      2038      2046      2048      2040      2038      2046      2049
      2040      2041      2043      2044      2040      2041      2043      2045
      2040      2041      2043      2055      2041      2040      2038      2046
      2041      2043      2055      2056      2041      2043      2055      2057
      2041      2043      2055      2058      2042      2041      2043      2044
      2042      2041      2043      2045      2042      2041      2043      2055
      2043      2055      2058      2059      2043      2055      2058      2060
      2043      2055      2058      2061      2044      2043      2055      2056
      2044      2043      2055      2057      2044      2043      2055      2058
      2045      2043      2055      2056      2045      2043      2055      2057
      2045      2043      2055      2058      2046      2049      2050      2051
      2046      2049      2050      2052      2047      2046      2049      2050
      2048      2046      2049      2050      2049      2050      2052      2053
      2049      2050      2052      2054      2049      2050      2052      2102
      2050      2052      2102      2103      2050      2052      2102      2104
      2050      2052      2102      2105      2051      2050      2052      2053
      2051      2050      2052      2054      2051      2050      2052      2102
      2052      2102      2105      2106      2052      2102      2105      2107
      2052      2102      2105      2108      2053      2052      2102      2103
      2053      2052      2102      2104      2053      2052      2102      2105
      2054      2052      2102      2103      2054      2052      2102      2104
      2054      2052      2102      2105      2055      2058      2061      2062
      2055      2058      2061      2063      2055      2058      2061      2064
      2056      2055      2058      2059      2056      2055      2058      2060
      2056      2055      2058      2061      2057      2055      2058      2059
      2057      2055      2058      2060      2057      2055      2058      2061
      2058      2061      2064      2065      2058      2061      2064      2066
      2058      2061      2064      2067      2059      2058      2061      2062
      2059      2058      2061      2063      2059      2058      2061      2064
      2060      2058      2061      2062      2060      2058      2061      2063
      2060      2058      2061      2064      2061      2064      2067      2068
      2061      2064      2067      2069      2061      2064      2067      2070
      2062      2061      2064      2065      2062      2061      2064      2066
      2062      2061      2064      2067      2063      2061      2064      2065
      2063      2061      2064      2066      2063      2061      2064      2067
      2064      2067      2070      2071      2064      2067      2070      2072
      2064      2067      2070      2073      2065      2064      2067      2068
      2065      2064      2067      2069      2065      2064      2067      2070
      2066      2064      2067      2068      2066      2064      2067      2069
      2066      2064      2067      2070      2067      2070      2073      2074
      2067      2070      2073      2075      2068      2067      2070      2071
      2068      2067      2070      2072      2068      2067      2070      2073
      2069      2067      2070      2071      2069      2067      2070      2072
      2069      2067      2070      2073      2070      2073      2075      2076
      2070      2073      2075      2077      2071      2070      2073      2074
      2071      2070      2073      2075      2072      2070      2073      2074
      2072      2070      2073      2075      2073      2075      2077      2078
      2073      2075      2077      2079      2073      2075      2077      2080
      2074      2073      2075      2076      2074      2073      2075      2077
      2075      2077      2080      2081      2075      2077      2080      2082
      2075      2077      2080      2083      2076      2075      2077      2078
      2076      2075      2077      2079      2076      2075      2077      2080
      2077      2080      2083      2084      2077      2080      2083      2085
      2077      2080      2083      2086      2078      2077      2080      2081
      2078      2077      2080      2082      2078      2077      2080      2083
      2079      2077      2080      2081      2079      2077      2080      2082
      2079      2077      2080      2083      2080      2083      2086      2087
      2080      2083      2086      2088      2080      2083      2086      2089
      2081      2080      2083      2084      2081      2080      2083      2085
      2081      2080      2083      2086      2082      2080      2083      2084
      2082      2080      2083      2085      2082      2080      2083      2086
      2083      2086      2089      2090      2083      2086      2089      2091
      2083      2086      2089      2092      2084      2083      2086      2087
      2084      2083      2086      2088      2084      2083      2086      2089
      2085      2083      2086      2087      2085      2083      2086      2088
      2085      2083      2086      2089      2086      2089      2092      2093
      2086      2089      2092      2094      2086      2089      2092      2095
      2087      2086      2089      2090      2087      2086      2089      2091
      2087      2086      2089      2092      2088      2086      2089      2090
      2088      2086      2089      2091      2088      2086      2089      2092
      2089      2092      2095      2096      2089      2092      2095      2097
      2089      2092      2095      2098      2090      2089      2092      2093
      2090      2089      2092      2094      2090      2089      2092      2095
      2091      2089      2092      2093      2091      2089      2092      2094
      2091      2089      2092      2095      2092      2095      2098      2099
      2092      2095      2098      2100      2092      2095      2098      2101
      2093      2092      2095      2096      2093      2092      2095      2097
      2093      2092      2095      2098      2094      2092      2095      2096
      2094      2092      2095      2097      2094      2092      2095      2098
      2096      2095      2098      2099      2096      2095      2098      2100
      2096      2095      2098      2101      2097      2095      2098      2099
      2097      2095      2098      2100      2097      2095      2098      2101
      2102      2105      2108      2109      2102      2105      2108      2110
      2102      2105      2108      2111      2103      2102      2105      2106
      2103      2102      2105      2107      2103      2102      2105      2108
      2104      2102      2105      2106      2104      2102      2105      2107
      2104      2102      2105      2108      2105      2108      2111      2112
      2105      2108      2111      2113      2105      2108      2111      2114
      2106      2105      2108      2109      2106      2105      2108      2110
      2106      2105      2108      2111      2107      2105      2108      2109
      2107      2105      2108      2110      2107      2105      2108      2111
      2108      2111      2114      2115      2108      2111      2114      2116
      2108      2111      2114      2117      2109      2108      2111      2112
      2109      2108      2111      2113      2109      2108      2111      2114
      2110      2108      2111      2112      2110      2108      2111      2113
      2110      2108      2111      2114      2111      2114      2117      2118
      2111      2114      2117      2119      2111      2114      2117      2120
      2112      2111      2114      2115      2112      2111      2114      2116
      2112      2111      2114      2117      2113      2111      2114      2115
      2113      2111      2114      2116      2113      2111      2114      2117
      2114      2117      2120      2121      2114      2117      2120      2122
      2114      2117      2120      2123      2115      2114      2117      2118
      2115      2114      2117      2119      2115      2114      2117      2120
      2116      2114      2117      2118      2116      2114      2117      2119
      2116      2114      2117      2120      2117      2120      2123      2124
      2117      2120      2123      2125      2117      2120      2123      2126
      2118      2117      2120      2121      2118      2117      2120      2122
      2118      2117      2120      2123      2119      2117      2120      2121
      2119      2117      2120      2122      2119      2117      2120      2123
      2120      2123      2126      2127      2120      2123      2126      2128
      2120      2123      2126      2129      2121      2120      2123      2124
      2121      2120      2123      2125      2121      2120      2123      2126
      2122      2120      2123      2124      2122      2120      2123      2125
      2122      2120      2123      2126      2123      2126      2129      2130
      2123      2126      2129      2131      2123      2126      2129      2132
      2124      2123      2126      2127      2124      2123      2126      2128
      2124      2123      2126      2129      2125      2123      2126      2127
      2125      2123      2126      2128      2125      2123      2126      2129
      2126      2129      2132      2133      2126      2129      2132      2134
      2126      2129      2132      2135      2127      2126      2129      2130
      2127      2126      2129      2131      2127      2126      2129      2132
      2128      2126      2129      2130      2128      2126      2129      2131
      2128      2126      2129      2132      2129      2132      2135      2136
      2129      2132      2135      2137      2129      2132      2135      2138
      2130      2129      2132      2133      2130      2129      2132      2134
      2130      2129      2132      2135      2131      2129      2132      2133
      2131      2129      2132      2134      2131      2129      2132      2135
      2132      2135      2138      2139      2132      2135      2138      2140
      2132      2135      2138      2141      2133      2132      2135      2136
      2133      2132      2135      2137      2133      2132      2135      2138
      2134      2132      2135      2136      2134      2132      2135      2137
      2134      2132      2135      2138      2135      2138      2141      2142
      2135      2138      2141      2143      2135      2138      2141      2144
      2136      2135      2138      2139      2136      2135      2138      2140
      2136      2135      2138      2141      2137      2135      2138      2139
      2137      2135      2138      2140      2137      2135      2138      2141
      2139      2138      2141      2142      2139      2138      2141      2143
      2139      2138      2141      2144      2140      2138      2141      2142
      2140      2138      2141      2143      2140      2138      2141      2144
      2145      2146      2161      2162      2145      2146      2161      2163
      2145      2146      2161      2167      2146      2145      2149      2150
      2146      2145      2149      2151      2146      2145      2149      2152
      2146      2145      2153      2154      2146      2145      2153      2155
      2146      2145      2153      2156      2146      2145      2157      2158
      2146      2145      2157      2159      2146      2145      2157      2160
      2146      2161      2167      2164      2147      2146      2145      2149
      2147      2146      2145      2153      2147      2146      2145      2157
      2147      2146      2161      2162      2147      2146      2161      2163
      2147      2146      2161      2167      2148      2146      2145      2149
      2148      2146      2145      2153      2148      2146      2145      2157
      2148      2146      2161      2162      2148      2146      2161      2163
      2148      2146      2161      2167      2149      2145      2146      2161
      2149      2145      2153      2154      2149      2145      2153      2155
      2149      2145      2153      2156      2149      2145      2157      2158
      2149      2145      2157      2159      2149      2145      2157      2160
      2150      2149      2145      2153      2150      2149      2145      2157
      2151      2149      2145      2153      2151      2149      2145      2157
      2152      2149      2145      2153      2152      2149      2145      2157
      2153      2145      2146      2161      2153      2145      2157      2158
      2153      2145      2157      2159      2153      2145      2157      2160
      2154      2153      2145      2157      2155      2153      2145      2157
      2156      2153      2145      2157      2157      2145      2146      2161
      2161      2167      2164      2165      2161      2167      2164      2166
      2161      2167      2164      2168      2162      2161      2167      2164
      2163      2161      2167      2164      2164      2168      2169      2170
      2164      2168      2169      2171      2164      2168      2169      2172
      2165      2164      2168      2169      2166      2164      2168      2169
      2167      2164      2168      2169      2168      2169      2172      2173
      2168      2169      2172      2174      2168      2169      2172      2180
      2169      2172      2174      2175      2169      2172      2180      2181
      2169      2172      2180      2182      2169      2172      2180      2183
      2170      2169      2172      2173      2170      2169      2172      2174
      2170      2169      2172      2180      2171      2169      2172      2173
      2171      2169      2172      2174      2171      2169      2172      2180
      2172      2174      2175      2176      2172      2174      2175      2177
      2172      2180      2183      2184      2173      2172      2174      2175
      2173      2172      2180      2181      2173      2172      2180      2182
      2173      2172      2180      2183      2174      2172      2180      2181
      2174      2172      2180      2182      2174      2172      2180      2183
      2174      2175      2177      2178      2174      2175      2177      2179
      2174      2175      2177      2189      2175      2174      2172      2180
      2175      2177      2189      2190      2175      2177      2189      2191
      2175      2177      2189      2192      2176      2175      2177      2178
      2176      2175      2177      2179      2176      2175      2177      2189
      2177      2189      2192      2193      2177      2189      2192      2194
      2177      2189      2192      2195      2178      2177      2189      2190
      2178      2177      2189      2191      2178      2177      2189      2192
      2179      2177      2189      2190      2179      2177      2189      2191
      2179      2177      2189      2192      2180      2183      2184      2185
      2180      2183      2184      2186      2181      2180      2183      2184
      2182      2180      2183      2184      2183      2184      2186      2187
      2183      2184      2186      2188      2183      2184      2186      2236
      2184      2186      2236      2237      2184      2186      2236      2238
      2184      2186      2236      2239      2185      2184      2186      2187
      2185      2184      2186      2188      2185      2184      2186      2236
      2186      2236      2239      2240      2186      2236      2239      2241
      2186      2236      2239      2242      2187      2186      2236      2237
      2187      2186      2236      2238      2187      2186      2236      2239
      2188      2186      2236      2237      2188      2186      2236      2238
      2188      2186      2236      2239      2189      2192      2195      2196
      2189      2192      2195      2197      2189      2192      2195      2198
      2190      2189      2192      2193      2190      2189      2192      2194
      2190      2189      2192      2195      2191      2189      2192      2193
      2191      2189      2192      2194      2191      2189      2192      2195
      2192      2195      2198      2199      2192      2195      2198      2200
      2192      2195      2198      2201      2193      2192      2195      2196
      2193      2192      2195      2197      2193      2192      2195      2198
      2194      2192      2195      2196      2194      2192      2195      2197
      2194      2192      2195      2198      2195      2198      2201      2202
      2195      2198      2201      2203      2195      2198      2201      2204
      2196      2195      2198      2199      2196      2195      2198      2200
      2196      2195      2198      2201      2197      2195      2198      2199
      2197      2195      2198      2200      2197      2195      2198      2201
      2198      2201      2204      2205      2198      2201      2204      2206
      2198      2201      2204      2207      2199      2198      2201      2202
      2199      2198      2201      2203      2199      2198      2201      2204
      2200      2198      2201      2202      2200      2198      2201      2203
      2200      2198      2201      2204      2201      2204      2207      2208
      2201      2204      2207      2209      2202      2201      2204      2205
      2202      2201      2204      2206      2202      2201      2204      2207
      2203      2201      2204      2205      2203      2201      2204      2206
      2203      2201      2204      2207      2204      2207      2209      2210
      2204      2207      2209      2211      2205      2204      2207      2208
      2205      2204      2207      2209      2206      2204      2207      2208
      2206      2204      2207      2209      2207      2209      2211      2212
      2207      2209      2211      2213      2207      2209      2211      2214
      2208      2207      2209      2210      2208      2207      2209      2211
      2209      2211      2214      2215      2209      2211      2214      2216
      2209      2211      2214      2217      2210      2209      2211      2212
      2210      2209      2211      2213      2210      2209      2211      2214
      2211      2214      2217      2218      2211      2214      2217      2219
      2211      2214      2217      2220      2212      2211      2214      2215
      2212      2211      2214      2216      2212      2211      2214      2217
      2213      2211      2214      2215      2213      2211      2214      2216
      2213      2211      2214      2217      2214      2217      2220      2221
      2214      2217      2220      2222      2214      2217      2220      2223
      2215      2214      2217      2218      2215      2214      2217      2219
      2215      2214      2217      2220      2216      2214      2217      2218
      2216      2214      2217      2219      2216      2214      2217      2220
      2217      2220      2223      2224      2217      2220      2223      2225
      2217      2220      2223      2226      2218      2217      2220      2221
      2218      2217      2220      2222      2218      2217      2220      2223
      2219      2217      2220      2221      2219      2217      2220      2222
      2219      2217      2220      2223      2220      2223      2226      2227
      2220      2223      2226      2228      2220      2223      2226      2229
      2221      2220      2223      2224      2221      2220      2223      2225
      2221      2220      2223      2226      2222      2220      2223      2224
      2222      2220      2223      2225      2222      2220      2223      2226
      2223      2226      2229      2230      2223      2226      2229      2231
      2223      2226      2229      2232      2224      2223      2226      2227
      2224      2223      2226      2228      2224      2223      2226      2229
      2225      2223      2226      2227      2225      2223      2226      2228
      2225      2223      2226      2229      2226      2229      2232      2233
      2226      2229      2232      2234      2226      2229      2232      2235
      2227      2226      2229      2230      2227      2226      2229      2231
      2227      2226      2229      2232      2228      2226      2229      2230
      2228      2226      2229      2231      2228      2226      2229      2232
      2230      2229      2232      2233      2230      2229      2232      2234
      2230      2229      2232      2235      2231      2229      2232      2233
      2231      2229      2232      2234      2231      2229      2232      2235
      2236      2239      2242      2243      2236      2239      2242      2244
      2236      2239      2242      2245      2237      2236      2239      2240
      2237      2236      2239      2241      2237      2236      2239      2242
      2238      2236      2239      2240      2238      2236      2239      2241
      2238      2236      2239      2242      2239      2242      2245      2246
      2239      2242      2245      2247      2239      2242      2245      2248
      2240      2239      2242      2243      2240      2239      2242      2244
      2240      2239      2242      2245      2241      2239      2242      2243
      2241      2239      2242      2244      2241      2239      2242      2245
      2242      2245      2248      2249      2242      2245      2248      2250
      2242      2245      2248      2251      2243      2242      2245      2246
      2243      2242      2245      2247      2243      2242      2245      2248
      2244      2242      2245      2246      2244      2242      2245      2247
      2244      2242      2245      2248      2245      2248      2251      2252
      2245      2248      2251      2253      2245      2248      2251      2254
      2246      2245      2248      2249      2246      2245      2248      2250
      2246      2245      2248      2251      2247      2245      2248      2249
      2247      2245      2248      2250      2247      2245      2248      2251
      2248      2251      2254      2255      2248      2251      2254      2256
      2248      2251      2254      2257      2249      2248      2251      2252
      2249      2248      2251      2253      2249      2248      2251      2254
      2250      2248      2251      2252      2250      2248      2251      2253
      2250      2248      2251      2254      2251      2254      2257      2258
      2251      2254      2257      2259      2251      2254      2257      2260
      2252      2251      2254      2255      2252      2251      2254      2256
      2252      2251      2254      2257      2253      2251      2254      2255
      2253      2251      2254      2256      2253      2251      2254      2257
      2254      2257      2260      2261      2254      2257      2260      2262
      2254      2257      2260      2263      2255      2254      2257      2258
      2255      2254      2257      2259      2255      2254      2257      2260
      2256      2254      2257      2258      2256      2254      2257      2259
      2256      2254      2257      2260      2257      2260      2263      2264
      2257      2260      2263      2265      2257      2260      2263      2266
      2258      2257      2260      2261      2258      2257      2260      2262
      2258      2257      2260      2263      2259      2257      2260      2261
      2259      2257      2260      2262      2259      2257      2260      2263
      2260      2263      2266      2267      2260      2263      2266      2268
      2260      2263      2266      2269      2261      2260      2263      2264
      2261      2260      2263      2265      2261      2260      2263      2266
      2262      2260      2263      2264      2262      2260      2263      2265
      2262      2260      2263      2266      2263      2266      2269      2270
      2263      2266      2269      2271      2263      2266      2269      2272
      2264      2263      2266      2267      2264      2263      2266      2268
      2264      2263      2266      2269      2265      2263      2266      2267
      2265      2263      2266      2268      2265      2263      2266      2269
      2266      2269      2272      2273      2266      2269      2272      2274
      2266      2269      2272      2275      2267      2266      2269      2270
      2267      2266      2269      2271      2267      2266      2269      2272
      2268      2266      2269      2270      2268      2266      2269      2271
      2268      2266      2269      2272      2269      2272      2275      2276
      2269      2272      2275      2277      2269      2272      2275      2278
      2270      2269      2272      2273      2270      2269      2272      2274
      2270      2269      2272      2275      2271      2269      2272      2273
      2271      2269      2272      2274      2271      2269      2272      2275
      2273      2272      2275      2276      2273      2272      2275      2277
      2273      2272      2275      2278      2274      2272      2275      2276
      2274      2272      2275      2277      2274      2272      2275      2278
      2279      2280      2295      2296      2279      2280      2295      2297
      2279      2280      2295      2301      2280      2279      2283      2284
      2280      2279      2283      2285      2280      2279      2283      2286
      2280      2279      2287      2288      2280      2279      2287      2289
      2280      2279      2287      2290      2280      2279      2291      2292
      2280      2279      2291      2293      2280      2279      2291      2294
      2280      2295      2301      2298      2281      2280      2279      2283
      2281      2280      2279      2287      2281      2280      2279      2291
      2281      2280      2295      2296      2281      2280      2295      2297
      2281      2280      2295      2301      2282      2280      2279      2283
      2282      2280      2279      2287      2282      2280      2279      2291
      2282      2280      2295      2296      2282      2280      2295      2297
      2282      2280      2295      2301      2283      2279      2280      2295
      2283      2279      2287      2288      2283      2279      2287      2289
      2283      2279      2287      2290      2283      2279      2291      2292
      2283      2279      2291      2293      2283      2279      2291      2294
      2284      2283      2279      2287      2284      2283      2279      2291
      2285      2283      2279      2287      2285      2283      2279      2291
      2286      2283      2279      2287      2286      2283      2279      2291
      2287      2279      2280      2295      2287      2279      2291      2292
      2287      2279      2291      2293      2287      2279      2291      2294
      2288      2287      2279      2291      2289      2287      2279      2291
      2290      2287      2279      2291      2291      2279      2280      2295
      2295      2301      2298      2299      2295      2301      2298      2300
      2295      2301      2298      2302      2296      2295      2301      2298
      2297      2295      2301      2298      2298      2302      2303      2304
      2298      2302      2303      2305      2298      2302      2303      2306
      2299      2298      2302      2303      2300      2298      2302      2303
      2301      2298      2302      2303      2302      2303      2306      2307
      2302      2303      2306      2308      2302      2303      2306      2314
      2303      2306      2308      2309      2303      2306      2314      2315
      2303      2306      2314      2316      2303      2306      2314      2317
      2304      2303      2306      2307      2304      2303      2306      2308
      2304      2303      2306      2314      2305      2303      2306      2307
      2305      2303      2306      2308      2305      2303      2306      2314
      2306      2308      2309      2310      2306      2308      2309      2311
      2306      2314      2317      2318      2307      2306      2308      2309
      2307      2306      2314      2315      2307      2306      2314      2316
      2307      2306      2314      2317      2308      2306      2314      2315
      2308      2306      2314      2316      2308      2306      2314      2317
      2308      2309      2311      2312      2308      2309      2311      2313
      2308      2309      2311      2323      2309      2308      2306      2314
      2309      2311      2323      2324      2309      2311      2323      2325
      2309      2311      2323      2326      2310      2309      2311      2312
      2310      2309      2311      2313      2310      2309      2311      2323
      2311      2323      2326      2327      2311      2323      2326      2328
      2311      2323      2326      2329      2312      2311      2323      2324
      2312      2311      2323      2325      2312      2311      2323      2326
      2313      2311      2323      2324      2313      2311      2323      2325
      2313      2311      2323      2326      2314      2317      2318      2319
      2314      2317      2318      2320      2315      2314      2317      2318
      2316      2314      2317      2318      2317      2318      2320      2321
      2317      2318      2320      2322      2317      2318      2320      2370
      2318      2320      2370      2371      2318      2320      2370      2372
      2318      2320      2370      2373      2319      2318      2320      2321
      2319      2318      2320      2322      2319      2318      2320      2370
      2320      2370      2373      2374      2320      2370      2373      2375
      2320      2370      2373      2376      2321      2320      2370      2371
      2321      2320      2370      2372      2321      2320      2370      2373
      2322      2320      2370      2371      2322      2320      2370      2372
      2322      2320      2370      2373      2323      2326      2329      2330
      2323      2326      2329      2331      2323      2326      2329      2332
      2324      2323      2326      2327      2324      2323      2326      2328
      2324      2323      2326      2329      2325      2323      2326      2327
      2325      2323      2326      2328      2325      2323      2326      2329
      2326      2329      2332      2333      2326      2329      2332      2334
      2326      2329      2332      2335      2327      2326      2329      2330
      2327      2326      2329      2331      2327      2326      2329      2332
      2328      2326      2329      2330      2328      2326      2329      2331
      2328      2326      2329      2332      2329      2332      2335      2336
      2329      2332      2335      2337      2329      2332      2335      2338
      2330      2329      2332      2333      2330      2329      2332      2334
      2330      2329      2332      2335      2331      2329      2332      2333
      2331      2329      2332      2334      2331      2329      2332      2335
      2332      2335      2338      2339      2332      2335      2338      2340
      2332      2335      2338      2341      2333      2332      2335      2336
      2333      2332      2335      2337      2333      2332      2335      2338
      2334      2332      2335      2336      2334      2332      2335      2337
      2334      2332      2335      2338      2335      2338      2341      2342
      2335      2338      2341      2343      2336      2335      2338      2339
      2336      2335      2338      2340      2336      2335      2338      2341
      2337      2335      2338      2339      2337      2335      2338      2340
      2337      2335      2338      2341      2338      2341      2343      2344
      2338      2341      2343      2345      2339      2338      2341      2342
      2339      2338      2341      2343      2340      2338      2341      2342
      2340      2338      2341      2343      2341      2343      2345      2346
      2341      2343      2345      2347      2341      2343      2345      2348
      2342      2341      2343      2344      2342      2341      2343      2345
      2343      2345      2348      2349      2343      2345      2348      2350
      2343      2345      2348      2351      2344      2343      2345      2346
      2344      2343      2345      2347      2344      2343      2345      2348
      2345      2348      2351      2352      2345      2348      2351      2353
      2345      2348      2351      2354      2346      2345      2348      2349
      2346      2345      2348      2350      2346      2345      2348      2351
      2347      2345      2348      2349      2347      2345      2348      2350
      2347      2345      2348      2351      2348      2351      2354      2355
      2348      2351      2354      2356      2348      2351      2354      2357
      2349      2348      2351      2352      2349      2348      2351      2353
      2349      2348      2351      2354      2350      2348      2351      2352
      2350      2348      2351      2353      2350      2348      2351      2354
      2351      2354      2357      2358      2351      2354      2357      2359
      2351      2354      2357      2360      2352      2351      2354      2355
      2352      2351      2354      2356      2352      2351      2354      2357
      2353      2351      2354      2355      2353      2351      2354      2356
      2353      2351      2354      2357      2354      2357      2360      2361
      2354      2357      2360      2362      2354      2357      2360      2363
      2355      2354      2357      2358      2355      2354      2357      2359
      2355      2354      2357      2360      2356      2354      2357      2358
      2356      2354      2357      2359      2356      2354      2357      2360
      2357      2360      2363      2364      2357      2360      2363      2365
      2357      2360      2363      2366      2358      2357      2360      2361
      2358      2357      2360      2362      2358      2357      2360      2363
      2359      2357      2360      2361      2359      2357      2360      2362
      2359      2357      2360      2363      2360      2363      2366      2367
      2360      2363      2366      2368      2360      2363      2366      2369
      2361      2360      2363      2364      2361      2360      2363      2365
      2361      2360      2363      2366      2362      2360      2363      2364
      2362      2360      2363      2365      2362      2360      2363      2366
      2364      2363      2366      2367      2364      2363      2366      2368
      2364      2363      2366      2369      2365      2363      2366      2367
      2365      2363      2366      2368      2365      2363      2366      2369
      2370      2373      2376      2377      2370      2373      2376      2378
      2370      2373      2376      2379      2371      2370      2373      2374
      2371      2370      2373      2375      2371      2370      2373      2376
      2372      2370      2373      2374      2372      2370      2373      2375
      2372      2370      2373      2376      2373      2376      2379      2380
      2373      2376      2379      2381      2373      2376      2379      2382
      2374      2373      2376      2377      2374      2373      2376      2378
      2374      2373      2376      2379      2375      2373      2376      2377
      2375      2373      2376      2378      2375      2373      2376      2379
      2376      2379      2382      2383      2376      2379      2382      2384
      2376      2379      2382      2385      2377      2376      2379      2380
      2377      2376      2379      2381      2377      2376      2379      2382
      2378      2376      2379      2380      2378      2376      2379      2381
      2378      2376      2379      2382      2379      2382      2385      2386
      2379      2382      2385      2387      2379      2382      2385      2388
      2380      2379      2382      2383      2380      2379      2382      2384
      2380      2379      2382      2385      2381      2379      2382      2383
      2381      2379      2382      2384      2381      2379      2382      2385
      2382      2385      2388      2389      2382      2385      2388      2390
      2382      2385      2388      2391      2383      2382      2385      2386
      2383      2382      2385      2387      2383      2382      2385      2388
      2384      2382      2385      2386      2384      2382      2385      2387
      2384      2382      2385      2388      2385      2388      2391      2392
      2385      2388      2391      2393      2385      2388      2391      2394
      2386      2385      2388      2389      2386      2385      2388      2390
      2386      2385      2388      2391      2387      2385      2388      2389
      2387      2385      2388      2390      2387      2385      2388      2391
      2388      2391      2394      2395      2388      2391      2394      2396
      2388      2391      2394      2397      2389      2388      2391      2392
      2389      2388      2391      2393      2389      2388      2391      2394
      2390      2388      2391      2392      2390      2388      2391      2393
      2390      2388      2391      2394      2391      2394      2397      2398
      2391      2394      2397      2399      2391      2394      2397      2400
      2392      2391      2394      2395      2392      2391      2394      2396
      2392      2391      2394      2397      2393      2391      2394      2395
      2393      2391      2394      2396      2393      2391      2394      2397
      2394      2397      2400      2401      2394      2397      2400      2402
      2394      2397      2400      2403      2395      2394      2397      2398
      2395      2394      2397      2399      2395      2394      2397      2400
      2396      2394      2397      2398      2396      2394      2397      2399
      2396      2394      2397      2400      2397      2400      2403      2404
      2397      2400      2403      2405      2397      2400      2403      2406
      2398      2397      2400      2401      2398      2397      2400      2402
      2398      2397      2400      2403      2399      2397      2400      2401
      2399      2397      2400      2402      2399      2397      2400      2403
      2400      2403      2406      2407      2400      2403      2406      2408
      2400      2403      2406      2409      2401      2400      2403      2404
      2401      2400      2403      2405      2401      2400      2403      2406
      2402      2400      2403      2404      2402      2400      2403      2405
      2402      2400      2403      2406      2403      2406      2409      2410
      2403      2406      2409      2411      2403      2406      2409      2412
      2404      2403      2406      2407      2404      2403      2406      2408
      2404      2403      2406      2409      2405      2403      2406      2407
      2405      2403      2406      2408      2405      2403      2406      2409
      2407      2406      2409      2410      2407      2406      2409      2411
      2407      2406      2409      2412      2408      2406      2409      2410
      2408      2406      2409      2411      2408      2406      2409      2412
      2413      2414      2429      2430      2413      2414      2429      2431
      2413      2414      2429      2435      2414      2413      2417      2418
      2414      2413      2417      2419      2414      2413      2417      2420
      2414      2413      2421      2422      2414      2413      2421      2423
      2414      2413      2421      2424      2414      2413      2425      2426
      2414      2413      2425      2427      2414      2413      2425      2428
      2414      2429      2435      2432      2415      2414      2413      2417
      2415      2414      2413      2421      2415      2414      2413      2425
      2415      2414      2429      2430      2415      2414      2429      2431
      2415      2414      2429      2435      2416      2414      2413      2417
      2416      2414      2413      2421      2416      2414      2413      2425
      2416      2414      2429      2430      2416      2414      2429      2431
      2416      2414      2429      2435      2417      2413      2414      2429
      2417      2413      2421      2422      2417      2413      2421      2423
      2417      2413      2421      2424      2417      2413      2425      2426
      2417      2413      2425      2427      2417      2413      2425      2428
      2418      2417      2413      2421      2418      2417      2413      2425
      2419      2417      2413      2421      2419      2417      2413      2425
      2420      2417      2413      2421      2420      2417      2413      2425
      2421      2413      2414      2429      2421      2413      2425      2426
      2421      2413      2425      2427      2421      2413      2425      2428
      2422      2421      2413      2425      2423      2421      2413      2425
      2424      2421      2413      2425      2425      2413      2414      2429
      2429      2435      2432      2433      2429      2435      2432      2434
      2429      2435      2432      2436      2430      2429      2435      2432
      2431      2429      2435      2432      2432      2436      2437      2438
      2432      2436      2437      2439      2432      2436      2437      2440
      2433      2432      2436      2437      2434      2432      2436      2437
      2435      2432      2436      2437      2436      2437      2440      2441
      2436      2437      2440      2442      2436      2437      2440      2448
      2437      2440      2442      2443      2437      2440      2448      2449
      2437      2440      2448      2450      2437      2440      2448      2451
      2438      2437      2440      2441      2438      2437      2440      2442
      2438      2437      2440      2448      2439      2437      2440      2441
      2439      2437      2440      2442      2439      2437      2440      2448
      2440      2442      2443      2444      2440      2442      2443      2445
      2440      2448      2451      2452      2441      2440      2442      2443
      2441      2440      2448      2449      2441      2440      2448      2450
      2441      2440      2448      2451      2442      2440      2448      2449
      2442      2440      2448      2450      2442      2440      2448      2451
      2442      2443      2445      2446      2442      2443      2445      2447
      2442      2443      2445      2457      2443      2442      2440      2448
      2443      2445      2457      2458      2443      2445      2457      2459
      2443      2445      2457      2460      2444      2443      2445      2446
      2444      2443      2445      2447      2444      2443      2445      2457
      2445      2457      2460      2461      2445      2457      2460      2462
      2445      2457      2460      2463      2446      2445      2457      2458
      2446      2445      2457      2459      2446      2445      2457      2460
      2447      2445      2457      2458      2447      2445      2457      2459
      2447      2445      2457      2460      2448      2451      2452      2453
      2448      2451      2452      2454      2449      2448      2451      2452
      2450      2448      2451      2452      2451      2452      2454      2455
      2451      2452      2454      2456      2451      2452      2454      2504
      2452      2454      2504      2505      2452      2454      2504      2506
      2452      2454      2504      2507      2453      2452      2454      2455
      2453      2452      2454      2456      2453      2452      2454      2504
      2454      2504      2507      2508      2454      2504      2507      2509
      2454      2504      2507      2510      2455      2454      2504      2505
      2455      2454      2504      2506      2455      2454      2504      2507
      2456      2454      2504      2505      2456      2454      2504      2506
      2456      2454      2504      2507      2457      2460      2463      2464
      2457      2460      2463      2465      2457      2460      2463      2466
      2458      2457      2460      2461      2458      2457      2460      2462
      2458      2457      2460      2463      2459      2457      2460      2461
      2459      2457      2460      2462      2459      2457      2460      2463
      2460      2463      2466      2467      2460      2463      2466      2468
      2460      2463      2466      2469      2461      2460      2463      2464
      2461      2460      2463      2465      2461      2460      2463      2466
      2462      2460      2463      2464      2462      2460      2463      2465
      2462      2460      2463      2466      2463      2466      2469      2470
      2463      2466      2469      2471      2463      2466      2469      2472
      2464      2463      2466      2467      2464      2463      2466      2468
      2464      2463      2466      2469      2465      2463      2466      2467
      2465      2463      2466      2468      2465      2463      2466      2469
      2466      2469      2472      2473      2466      2469      2472      2474
      2466      2469      2472      2475      2467      2466      2469      2470
      2467      2466      2469      2471      2467      2466      2469      2472
      2468      2466      2469      2470      2468      2466      2469      2471
      2468      2466      2469      2472      2469      2472      2475      2476
      2469      2472      2475      2477      2470      2469      2472      2473
      2470      2469      2472      2474      2470      2469      2472      2475
      2471      2469      2472      2473      2471      2469      2472      2474
      2471      2469      2472      2475      2472      2475      2477      2478
      2472      2475      2477      2479      2473      2472      2475      2476
      2473      2472      2475      2477      2474      2472      2475      2476
      2474      2472      2475      2477      2475      2477      2479      2480
      2475      2477      2479      2481      2475      2477      2479      2482
      2476      2475      2477      2478      2476      2475      2477      2479
      2477      2479      2482      2483      2477      2479      2482      2484
      2477      2479      2482      2485      2478      2477      2479      2480
      2478      2477      2479      2481      2478      2477      2479      2482
      2479      2482      2485      2486      2479      2482      2485      2487
      2479      2482      2485      2488      2480      2479      2482      2483
      2480      2479      2482      2484      2480      2479      2482      2485
      2481      2479      2482      2483      2481      2479      2482      2484
      2481      2479      2482      2485      2482      2485      2488      2489
      2482      2485      2488      2490      2482      2485      2488      2491
      2483      2482      2485      2486      2483      2482      2485      2487
      2483      2482      2485      2488      2484      2482      2485      2486
      2484      2482      2485      2487      2484      2482      2485      2488
      2485      2488      2491      2492      2485      2488      2491      2493
      2485      2488      2491      2494      2486      2485      2488      2489
      2486      2485      2488      2490      2486      2485      2488      2491
      2487      2485      2488      2489      2487      2485      2488      2490
      2487      2485      2488      2491      2488      2491      2494      2495
      2488      2491      2494      2496      2488      2491      2494      2497
      2489      2488      2491      2492      2489      2488      2491      2493
      2489      2488      2491      2494      2490      2488      2491      2492
      2490      2488      2491      2493      2490      2488      2491      2494
      2491      2494      2497      2498      2491      2494      2497      2499
      2491      2494      2497      2500      2492      2491      2494      2495
      2492      2491      2494      2496      2492      2491      2494      2497
      2493      2491      2494      2495      2493      2491      2494      2496
      2493      2491      2494      2497      2494      2497      2500      2501
      2494      2497      2500      2502      2494      2497      2500      2503
      2495      2494      2497      2498      2495      2494      2497      2499
      2495      2494      2497      2500      2496      2494      2497      2498
      2496      2494      2497      2499      2496      2494      2497      2500
      2498      2497      2500      2501      2498      2497      2500      2502
      2498      2497      2500      2503      2499      2497      2500      2501
      2499      2497      2500      2502      2499      2497      2500      2503
      2504      2507      2510      2511      2504      2507      2510      2512
      2504      2507      2510      2513      2505      2504      2507      2508
      2505      2504      2507      2509      2505      2504      2507      2510
      2506      2504      2507      2508      2506      2504      2507      2509
      2506      2504      2507      2510      2507      2510      2513      2514
      2507      2510      2513      2515      2507      2510      2513      2516
      2508      2507      2510      2511      2508      2507      2510      2512
      2508      2507      2510      2513      2509      2507      2510      2511
      2509      2507      2510      2512      2509      2507      2510      2513
      2510      2513      2516      2517      2510      2513      2516      2518
      2510      2513      2516      2519      2511      2510      2513      2514
      2511      2510      2513      2515      2511      2510      2513      2516
      2512      2510      2513      2514      2512      2510      2513      2515
      2512      2510      2513      2516      2513      2516      2519      2520
      2513      2516      2519      2521      2513      2516      2519      2522
      2514      2513      2516      2517      2514      2513      2516      2518
      2514      2513      2516      2519      2515      2513      2516      2517
      2515      2513      2516      2518      2515      2513      2516      2519
      2516      2519      2522      2523      2516      2519      2522      2524
      2516      2519      2522      2525      2517      2516      2519      2520
      2517      2516      2519      2521      2517      2516      2519      2522
      2518      2516      2519      2520      2518      2516      2519      2521
      2518      2516      2519      2522      2519      2522      2525      2526
      2519      2522      2525      2527      2519      2522      2525      2528
      2520      2519      2522      2523      2520      2519      2522      2524
      2520      2519      2522      2525      2521      2519      2522      2523
      2521      2519      2522      2524      2521      2519      2522      2525
      2522      2525      2528      2529      2522      2525      2528      2530
      2522      2525      2528      2531      2523      2522      2525      2526
      2523      2522      2525      2527      2523      2522      2525      2528
      2524      2522      2525      2526      2524      2522      2525      2527
      2524      2522      2525      2528      2525      2528      2531      2532
      2525      2528      2531      2533      2525      2528      2531      2534
      2526      2525      2528      2529      2526      2525      2528      2530
      2526      2525      2528      2531      2527      2525      2528      2529
      2527      2525      2528      2530      2527      2525      2528      2531
      2528      2531      2534      2535      2528      2531      2534      2536
      2528      2531      2534      2537      2529      2528      2531      2532
      2529      2528      2531      2533      2529      2528      2531      2534
      2530      2528      2531      2532      2530      2528      2531      2533
      2530      2528      2531      2534      2531      2534      2537      2538
      2531      2534      2537      2539      2531      2534      2537      2540
      2532      2531      2534      2535      2532      2531      2534      2536
      2532      2531      2534      2537      2533      2531      2534      2535
      2533      2531      2534      2536      2533      2531      2534      2537
      2534      2537      2540      2541      2534      2537      2540      2542
      2534      2537      2540      2543      2535      2534      2537      2538
      2535      2534      2537      2539      2535      2534      2537      2540
      2536      2534      2537      2538      2536      2534      2537      2539
      2536      2534      2537      2540      2537      2540      2543      2544
      2537      2540      2543      2545      2537      2540      2543      2546
      2538      2537      2540      2541      2538      2537      2540      2542
      2538      2537      2540      2543      2539      2537      2540      2541
      2539      2537      2540      2542      2539      2537      2540      2543
      2541      2540      2543      2544      2541      2540      2543      2545
      2541      2540      2543      2546      2542      2540      2543      2544
      2542      2540      2543      2545      2542      2540      2543      2546
      2547      2548      2563      2564      2547      2548      2563      2565
      2547      2548      2563      2569      2548      2547      2551      2552
      2548      2547      2551      2553      2548      2547      2551      2554
      2548      2547      2555      2556      2548      2547      2555      2557
      2548      2547      2555      2558      2548      2547      2559      2560
      2548      2547      2559      2561      2548      2547      2559      2562
      2548      2563      2569      2566      2549      2548      2547      2551
      2549      2548      2547      2555      2549      2548      2547      2559
      2549      2548      2563      2564      2549      2548      2563      2565
      2549      2548      2563      2569      2550      2548      2547      2551
      2550      2548      2547      2555      2550      2548      2547      2559
      2550      2548      2563      2564      2550      2548      2563      2565
      2550      2548      2563      2569      2551      2547      2548      2563
      2551      2547      2555      2556      2551      2547      2555      2557
      2551      2547      2555      2558      2551      2547      2559      2560
      2551      2547      2559      2561      2551      2547      2559      2562
      2552      2551      2547      2555      2552      2551      2547      2559
      2553      2551      2547      2555      2553      2551      2547      2559
      2554      2551      2547      2555      2554      2551      2547      2559
      2555      2547      2548      2563      2555      2547      2559      2560
      2555      2547      2559      2561      2555      2547      2559      2562
      2556      2555      2547      2559      2557      2555      2547      2559
      2558      2555      2547      2559      2559      2547      2548      2563
      2563      2569      2566      2567      2563      2569      2566      2568
      2563      2569      2566      2570      2564      2563      2569      2566
      2565      2563      2569      2566      2566      2570      2571      2572
      2566      2570      2571      2573      2566      2570      2571      2574
      2567      2566      2570      2571      2568      2566      2570      2571
      2569      2566      2570      2571      2570      2571      2574      2575
      2570      2571      2574      2576      2570      2571      2574      2582
      2571      2574      2576      2577      2571      2574      2582      2583
      2571      2574      2582      2584      2571      2574      2582      2585
      2572      2571      2574      2575      2572      2571      2574      2576
      2572      2571      2574      2582      2573      2571      2574      2575
      2573      2571      2574      2576      2573      2571      2574      2582
      2574      2576      2577      2578      2574      2576      2577      2579
      2574      2582      2585      2586      2575      2574      2576      2577
      2575      2574      2582      2583      2575      2574      2582      2584
      2575      2574      2582      2585      2576      2574      2582      2583
      2576      2574      2582      2584      2576      2574      2582      2585
      2576      2577      2579      2580      2576      2577      2579      2581
      2576      2577      2579      2591      2577      2576      2574      2582
      2577      2579      2591      2592      2577      2579      2591      2593
      2577      2579      2591      2594      2578      2577      2579      2580
      2578      2577      2579      2581      2578      2577      2579      2591
      2579      2591      2594      2595      2579      2591      2594      2596
      2579      2591      2594      2597      2580      2579      2591      2592
      2580      2579      2591      2593      2580      2579      2591      2594
      2581      2579      2591      2592      2581      2579      2591      2593
      2581      2579      2591      2594      2582      2585      2586      2587
      2582      2585      2586      2588      2583      2582      2585      2586
      2584      2582      2585      2586      2585      2586      2588      2589
      2585      2586      2588      2590      2585      2586      2588      2638
      2586      2588      2638      2639      2586      2588      2638      2640
      2586      2588      2638      2641      2587      2586      2588      2589
      2587      2586      2588      2590      2587      2586      2588      2638
      2588      2638      2641      2642      2588      2638      2641      2643
      2588      2638      2641      2644      2589      2588      2638      2639
      2589      2588      2638      2640      2589      2588      2638      2641
      2590      2588      2638      2639      2590      2588      2638      2640
      2590      2588      2638      2641      2591      2594      2597      2598
      2591      2594      2597      2599      2591      2594      2597      2600
      2592      2591      2594      2595      2592      2591      2594      2596
      2592      2591      2594      2597      2593      2591      2594      2595
      2593      2591      2594      2596      2593      2591      2594      2597
      2594      2597      2600      2601      2594      2597      2600      2602
      2594      2597      2600      2603      2595      2594      2597      2598
      2595      2594      2597      2599      2595      2594      2597      2600
      2596      2594      2597      2598      2596      2594      2597      2599
      2596      2594      2597      2600      2597      2600      2603      2604
      2597      2600      2603      2605      2597      2600      2603      2606
      2598      2597      2600      2601      2598      2597      2600      2602
      2598      2597      2600      2603      2599      2597      2600      2601
      2599      2597      2600      2602      2599      2597      2600      2603
      2600      2603      2606      2607      2600      2603      2606      2608
      2600      2603      2606      2609      2601      2600      2603      2604
      2601      2600      2603      2605      2601      2600      2603      2606
      2602      2600      2603      2604      2602      2600      2603      2605
      2602      2600      2603      2606      2603      2606      2609      2610
      2603      2606      2609      2611      2604      2603      2606      2607
      2604      2603      2606      2608      2604      2603      2606      2609
      2605      2603      2606      2607      2605      2603      2606      2608
      2605      2603      2606      2609      2606      2609      2611      2612
      2606      2609      2611      2613      2607      2606      2609      2610
      2607      2606      2609      2611      2608      2606      2609      2610
      2608      2606      2609      2611      2609      2611      2613      2614
      2609      2611      2613      2615      2609      2611      2613      2616
      2610      2609      2611      2612      2610      2609      2611      2613
      2611      2613      2616      2617      2611      2613      2616      2618
      2611      2613      2616      2619      2612      2611      2613      2614
      2612      2611      2613      2615      2612      2611      2613      2616
      2613      2616      2619      2620      2613      2616      2619      2621
      2613      2616      2619      2622      2614      2613      2616      2617
      2614      2613      2616      2618      2614      2613      2616      2619
      2615      2613      2616      2617      2615      2613      2616      2618
      2615      2613      2616      2619      2616      2619      2622      2623
      2616      2619      2622      2624      2616      2619      2622      2625
      2617      2616      2619      2620      2617      2616      2619      2621
      2617      2616      2619      2622      2618      2616      2619      2620
      2618      2616      2619      2621      2618      2616      2619      2622
      2619      2622      2625      2626      2619      2622      2625      2627
      2619      2622      2625      2628      2620      2619      2622      2623
      2620      2619      2622      2624      2620      2619      2622      2625
      2621      2619      2622      2623      2621      2619      2622      2624
      2621      2619      2622      2625      2622      2625      2628      2629
      2622      2625      2628      2630      2622      2625      2628      2631
      2623      2622      2625      2626      2623      2622      2625      2627
      2623      2622      2625      2628      2624      2622      2625      2626
      2624      2622      2625      2627      2624      2622      2625      2628
      2625      2628      2631      2632      2625      2628      2631      2633
      2625      2628      2631      2634      2626      2625      2628      2629
      2626      2625      2628      2630      2626      2625      2628      2631
      2627      2625      2628      2629      2627      2625      2628      2630
      2627      2625      2628      2631      2628      2631      2634      2635
      2628      2631      2634      2636      2628      2631      2634      2637
      2629      2628      2631      2632      2629      2628      2631      2633
      2629      2628      2631      2634      2630      2628      2631      2632
      2630      2628      2631      2633      2630      2628      2631      2634
      2632      2631      2634      2635      2632      2631      2634      2636
      2632      2631      2634      2637      2633      2631      2634      2635
      2633      2631      2634      2636      2633      2631      2634      2637
      2638      2641      2644      2645      2638      2641      2644      2646
      2638      2641      2644      2647      2639      2638      2641      2642
      2639      2638      2641      2643      2639      2638      2641      2644
      2640      2638      2641      2642      2640      2638      2641      2643
      2640      2638      2641      2644      2641      2644      2647      2648
      2641      2644      2647      2649      2641      2644      2647      2650
      2642      2641      2644      2645      2642      2641      2644      2646
      2642      2641      2644      2647      2643      2641      2644      2645
      2643      2641      2644      2646      2643      2641      2644      2647
      2644      2647      2650      2651      2644      2647      2650      2652
      2644      2647      2650      2653      2645      2644      2647      2648
      2645      2644      2647      2649      2645      2644      2647      2650
      2646      2644      2647      2648      2646      2644      2647      2649
      2646      2644      2647      2650      2647      2650      2653      2654
      2647      2650      2653      2655      2647      2650      2653      2656
      2648      2647      2650      2651      2648      2647      2650      2652
      2648      2647      2650      2653      2649      2647      2650      2651
      2649      2647      2650      2652      2649      2647      2650      2653
      2650      2653      2656      2657      2650      2653      2656      2658
      2650      2653      2656      2659      2651      2650      2653      2654
      2651      2650      2653      2655      2651      2650      2653      2656
      2652      2650      2653      2654      2652      2650      2653      2655
      2652      2650      2653      2656      2653      2656      2659      2660
      2653      2656      2659      2661      2653      2656      2659      2662
      2654      2653      2656      2657      2654      2653      2656      2658
      2654      2653      2656      2659      2655      2653      2656      2657
      2655      2653      2656      2658      2655      2653      2656      2659
      2656      2659      2662      2663      2656      2659      2662      2664
      2656      2659      2662      2665      2657      2656      2659      2660
      2657      2656      2659      2661      2657      2656      2659      2662
      2658      2656      2659      2660      2658      2656      2659      2661
      2658      2656      2659      2662      2659      2662      2665      2666
      2659      2662      2665      2667      2659      2662      2665      2668
      2660      2659      2662      2663      2660      2659      2662      2664
      2660      2659      2662      2665      2661      2659      2662      2663
      2661      2659      2662      2664      2661      2659      2662      2665
      2662      2665      2668      2669      2662      2665      2668      2670
      2662      2665      2668      2671      2663      2662      2665      2666
      2663      2662      2665      2667      2663      2662      2665      2668
      2664      2662      2665      2666      2664      2662      2665      2667
      2664      2662      2665      2668      2665      2668      2671      2672
      2665      2668      2671      2673      2665      2668      2671      2674
      2666      2665      2668      2669      2666      2665      2668      2670
      2666      2665      2668      2671      2667      2665      2668      2669
      2667      2665      2668      2670      2667      2665      2668      2671
      2668      2671      2674      2675      2668      2671      2674      2676
      2668      2671      2674      2677      2669      2668      2671      2672
      2669      2668      2671      2673      2669      2668      2671      2674
      2670      2668      2671      2672      2670      2668      2671      2673
      2670      2668      2671      2674      2671      2674      2677      2678
      2671      2674      2677      2679      2671      2674      2677      2680
      2672      2671      2674      2675      2672      2671      2674      2676
      2672      2671      2674      2677      2673      2671      2674      2675
      2673      2671      2674      2676      2673      2671      2674      2677
      2675      2674      2677      2678      2675      2674      2677      2679
      2675      2674      2677      2680      2676      2674      2677      2678
      2676      2674      2677      2679      2676      2674      2677      2680
      2681      2682      2697      2698      2681      2682      2697      2699
      2681      2682      2697      2703      2682      2681      2685      2686
      2682      2681      2685      2687      2682      2681      2685      2688
      2682      2681      2689      2690      2682      2681      2689      2691
      2682      2681      2689      2692      2682      2681      2693      2694
      2682      2681      2693      2695      2682      2681      2693      2696
      2682      2697      2703      2700      2683      2682      2681      2685
      2683      2682      2681      2689      2683      2682      2681      2693
      2683      2682      2697      2698      2683      2682      2697      2699
      2683      2682      2697      2703      2684      2682      2681      2685
      2684      2682      2681      2689      2684      2682      2681      2693
      2684      2682      2697      2698      2684      2682      2697      2699
      2684      2682      2697      2703      2685      2681      2682      2697
      2685      2681      2689      2690      2685      2681      2689      2691
      2685      2681      2689      2692      2685      2681      2693      2694
      2685      2681      2693      2695      2685      2681      2693      2696
      2686      2685      2681      2689      2686      2685      2681      2693
      2687      2685      2681      2689      2687      2685      2681      2693
      2688      2685      2681      2689      2688      2685      2681      2693
      2689      2681      2682      2697      2689      2681      2693      2694
      2689      2681      2693      2695      2689      2681      2693      2696
      2690      2689      2681      2693      2691      2689      2681      2693
      2692      2689      2681      2693      2693      2681      2682      2697
      2697      2703      2700      2701      2697      2703      2700      2702
      2697      2703      2700      2704      2698      2697      2703      2700
      2699      2697      2703      2700      2700      2704      2705      2706
      2700      2704      2705      2707      2700      2704      2705      2708
      2701      2700      2704      2705      2702      2700      2704      2705
      2703      2700      2704      2705      2704      2705      2708      2709
      2704      2705      2708      2710      2704      2705      2708      2716
      2705      2708      2710      2711      2705      2708      2716      2717
      2705      2708      2716      2718      2705      2708      2716      2719
      2706      2705      2708      2709      2706      2705      2708      2710
      2706      2705      2708      2716      2707      2705      2708      2709
      2707      2705      2708      2710      2707      2705      2708      2716
      2708      2710      2711      2712      2708      2710      2711      2713
      2708      2716      2719      2720      2709      2708      2710      2711
      2709      2708      2716      2717      2709      2708      2716      2718
      2709      2708      2716      2719      2710      2708      2716      2717
      2710      2708      2716      2718      2710      2708      2716      2719
      2710      2711      2713      2714      2710      2711      2713      2715
      2710      2711      2713      2725      2711      2710      2708      2716
      2711      2713      2725      2726      2711      2713      2725      2727
      2711      2713      2725      2728      2712      2711      2713      2714
      2712      2711      2713      2715      2712      2711      2713      2725
      2713      2725      2728      2729      2713      2725      2728      2730
      2713      2725      2728      2731      2714      2713      2725      2726
      2714      2713      2725      2727      2714      2713      2725      2728
      2715      2713      2725      2726      2715      2713      2725      2727
      2715      2713      2725      2728      2716      2719      2720      2721
      2716      2719      2720      2722      2717      2716      2719      2720
      2718      2716      2719      2720      2719      2720      2722      2723
      2719      2720      2722      2724      2719      2720      2722      2772
      2720      2722      2772      2773      2720      2722      2772      2774
      2720      2722      2772      2775      2721      2720      2722      2723
      2721      2720      2722      2724      2721      2720      2722      2772
      2722      2772      2775      2776      2722      2772      2775      2777
      2722      2772      2775      2778      2723      2722      2772      2773
      2723      2722      2772      2774      2723      2722      2772      2775
      2724      2722      2772      2773      2724      2722      2772      2774
      2724      2722      2772      2775      2725      2728      2731      2732
      2725      2728      2731      2733      2725      2728      2731      2734
      2726      2725      2728      2729      2726      2725      2728      2730
      2726      2725      2728      2731      2727      2725      2728      2729
      2727      2725      2728      2730      2727      2725      2728      2731
      2728      2731      2734      2735      2728      2731      2734      2736
      2728      2731      2734      2737      2729      2728      2731      2732
      2729      2728      2731      2733      2729      2728      2731      2734
      2730      2728      2731      2732      2730      2728      2731      2733
      2730      2728      2731      2734      2731      2734      2737      2738
      2731      2734      2737      2739      2731      2734      2737      2740
      2732      2731      2734      2735      2732      2731      2734      2736
      2732      2731      2734      2737      2733      2731      2734      2735
      2733      2731      2734      2736      2733      2731      2734      2737
      2734      2737      2740      2741      2734      2737      2740      2742
      2734      2737      2740      2743      2735      2734      2737      2738
      2735      2734      2737      2739      2735      2734      2737      2740
      2736      2734      2737      2738      2736      2734      2737      2739
      2736      2734      2737      2740      2737      2740      2743      2744
      2737      2740      2743      2745      2738      2737      2740      2741
      2738      2737      2740      2742      2738      2737      2740      2743
      2739      2737      2740      2741      2739      2737      2740      2742
      2739      2737      2740      2743      2740      2743      2745      2746
      2740      2743      2745      2747      2741      2740      2743      2744
      2741      2740      2743      2745      2742      2740      2743      2744
      2742      2740      2743      2745      2743      2745      2747      2748
      2743      2745      2747      2749      2743      2745      2747      2750
      2744      2743      2745      2746      2744      2743      2745      2747
      2745      2747      2750      2751      2745      2747      2750      2752
      2745      2747      2750      2753      2746      2745      2747      2748
      2746      2745      2747      2749      2746      2745      2747      2750
      2747      2750      2753      2754      2747      2750      2753      2755
      2747      2750      2753      2756      2748      2747      2750      2751
      2748      2747      2750      2752      2748      2747      2750      2753
      2749      2747      2750      2751      2749      2747      2750      2752
      2749      2747      2750      2753      2750      2753      2756      2757
      2750      2753      2756      2758      2750      2753      2756      2759
      2751      2750      2753      2754      2751      2750      2753      2755
      2751      2750      2753      2756      2752      2750      2753      2754
      2752      2750      2753      2755      2752      2750      2753      2756
      2753      2756      2759      2760      2753      2756      2759      2761
      2753      2756      2759      2762      2754      2753      2756      2757
      2754      2753      2756      2758      2754      2753      2756      2759
      2755      2753      2756      2757      2755      2753      2756      2758
      2755      2753      2756      2759      2756      2759      2762      2763
      2756      2759      2762      2764      2756      2759      2762      2765
      2757      2756      2759      2760      2757      2756      2759      2761
      2757      2756      2759      2762      2758      2756      2759      2760
      2758      2756      2759      2761      2758      2756      2759      2762
      2759      2762      2765      2766      2759      2762      2765      2767
      2759      2762      2765      2768      2760      2759      2762      2763
      2760      2759      2762      2764      2760      2759      2762      2765
      2761      2759      2762      2763      2761      2759      2762      2764
      2761      2759      2762      2765      2762      2765      2768      2769
      2762      2765      2768      2770      2762      2765      2768      2771
      2763      2762      2765      2766      2763      2762      2765      2767
      2763      2762      2765      2768      2764      2762      2765      2766
      2764      2762      2765      2767      2764      2762      2765      2768
      2766      2765      2768      2769      2766      2765      2768      2770
      2766      2765      2768      2771      2767      2765      2768      2769
      2767      2765      2768      2770      2767      2765      2768      2771
      2772      2775      2778      2779      2772      2775      2778      2780
      2772      2775      2778      2781      2773      2772      2775      2776
      2773      2772      2775      2777      2773      2772      2775      2778
      2774      2772      2775      2776      2774      2772      2775      2777
      2774      2772      2775      2778      2775      2778      2781      2782
      2775      2778      2781      2783      2775      2778      2781      2784
      2776      2775      2778      2779      2776      2775      2778      2780
      2776      2775      2778      2781      2777      2775      2778      2779
      2777      2775      2778      2780      2777      2775      2778      2781
      2778      2781      2784      2785      2778      2781      2784      2786
      2778      2781      2784      2787      2779      2778      2781      2782
      2779      2778      2781      2783      2779      2778      2781      2784
      2780      2778      2781      2782      2780      2778      2781      2783
      2780      2778      2781      2784      2781      2784      2787      2788
      2781      2784      2787      2789      2781      2784      2787      2790
      2782      2781      2784      2785      2782      2781      2784      2786
      2782      2781      2784      2787      2783      2781      2784      2785
      2783      2781      2784      2786      2783      2781      2784      2787
      2784      2787      2790      2791      2784      2787      2790      2792
      2784      2787      2790      2793      2785      2784      2787      2788
      2785      2784      2787      2789      2785      2784      2787      2790
      2786      2784      2787      2788      2786      2784      2787      2789
      2786      2784      2787      2790      2787      2790      2793      2794
      2787      2790      2793      2795      2787      2790      2793      2796
      2788      2787      2790      2791      2788      2787      2790      2792
      2788      2787      2790      2793      2789      2787      2790      2791
      2789      2787      2790      2792      2789      2787      2790      2793
      2790      2793      2796      2797      2790      2793      2796      2798
      2790      2793      2796      2799      2791      2790      2793      2794
      2791      2790      2793      2795      2791      2790      2793      2796
      2792      2790      2793      2794      2792      2790      2793      2795
      2792      2790      2793      2796      2793      2796      2799      2800
      2793      2796      2799      2801      2793      2796      2799      2802
      2794      2793      2796      2797      2794      2793      2796      2798
      2794      2793      2796      2799      2795      2793      2796      2797
      2795      2793      2796      2798      2795      2793      2796      2799
      2796      2799      2802      2803      2796      2799      2802      2804
      2796      2799      2802      2805      2797      2796      2799      2800
      2797      2796      2799      2801      2797      2796      2799      2802
      2798      2796      2799      2800      2798      2796      2799      2801
      2798      2796      2799      2802      2799      2802      2805      2806
      2799      2802      2805      2807      2799      2802      2805      2808
      2800      2799      2802      2803      2800      2799      2802      2804
      2800      2799      2802      2805      2801      2799      2802      2803
      2801      2799      2802      2804      2801      2799      2802      2805
      2802      2805      2808      2809      2802      2805      2808      2810
      2802      2805      2808      2811      2803      2802      2805      2806
      2803      2802      2805      2807      2803      2802      2805      2808
      2804      2802      2805      2806      2804      2802      2805      2807
      2804      2802      2805      2808      2805      2808      2811      2812
      2805      2808      2811      2813      2805      2808      2811      2814
      2806      2805      2808      2809      2806      2805      2808      2810
      2806      2805      2808      2811      2807      2805      2808      2809
      2807      2805      2808      2810      2807      2805      2808      2811
      2809      2808      2811      2812      2809      2808      2811      2813
      2809      2808      2811      2814      2810      2808      2811      2812
      2810      2808      2811      2813      2810      2808      2811      2814
      2815      2816      2831      2832      2815      2816      2831      2833
      2815      2816      2831      2837      2816      2815      2819      2820
      2816      2815      2819      2821      2816      2815      2819      2822
      2816      2815      2823      2824      2816      2815      2823      2825
      2816      2815      2823      2826      2816      2815      2827      2828
      2816      2815      2827      2829      2816      2815      2827      2830
      2816      2831      2837      2834      2817      2816      2815      2819
      2817      2816      2815      2823      2817      2816      2815      2827
      2817      2816      2831      2832      2817      2816      2831      2833
      2817      2816      2831      2837      2818      2816      2815      2819
      2818      2816      2815      2823      2818      2816      2815      2827
      2818      2816      2831      2832      2818      2816      2831      2833
      2818      2816      2831      2837      2819      2815      2816      2831
      2819      2815      2823      2824      2819      2815      2823      2825
      2819      2815      2823      2826      2819      2815      2827      2828
      2819      2815      2827      2829      2819      2815      2827      2830
      2820      2819      2815      2823      2820      2819      2815      2827
      2821      2819      2815      2823      2821      2819      2815      2827
      2822      2819      2815      2823      2822      2819      2815      2827
      2823      2815      2816      2831      2823      2815      2827      2828
      2823      2815      2827      2829      2823      2815      2827      2830
      2824      2823      2815      2827      2825      2823      2815      2827
      2826      2823      2815      2827      2827      2815      2816      2831
      2831      2837      2834      2835      2831      2837      2834      2836
      2831      2837      2834      2838      2832      2831      2837      2834
      2833      2831      2837      2834      2834      2838      2839      2840
      2834      2838      2839      2841      2834      2838      2839      2842
      2835      2834      2838      2839      2836      2834      2838      2839
      2837      2834      2838      2839      2838      2839      2842      2843
      2838      2839      2842      2844      2838      2839      2842      2850
      2839      2842      2844      2845      2839      2842      2850      2851
      2839      2842      2850      2852      2839      2842      2850      2853
      2840      2839      2842      2843      2840      2839      2842      2844
      2840      2839      2842      2850      2841      2839      2842      2843
      2841      2839      2842      2844      2841      2839      2842      2850
      2842      2844      2845      2846      2842      2844      2845      2847
      2842      2850      2853      2854      2843      2842      2844      2845
      2843      2842      2850      2851      2843      2842      2850      2852
      2843      2842      2850      2853      2844      2842      2850      2851
      2844      2842      2850      2852      2844      2842      2850      2853
      2844      2845      2847      2848      2844      2845      2847      2849
      2844      2845      2847      2859      2845      2844      2842      2850
      2845      2847      2859      2860      2845      2847      2859      2861
      2845      2847      2859      2862      2846      2845      2847      2848
      2846      2845      2847      2849      2846      2845      2847      2859
      2847      2859      2862      2863      2847      2859      2862      2864
      2847      2859      2862      2865      2848      2847      2859      2860
      2848      2847      2859      2861      2848      2847      2859      2862
      2849      2847      2859      2860      2849      2847      2859      2861
      2849      2847      2859      2862      2850      2853      2854      2855
      2850      2853      2854      2856      2851      2850      2853      2854
      2852      2850      2853      2854      2853      2854      2856      2857
      2853      2854      2856      2858      2853      2854      2856      2906
      2854      2856      2906      2907      2854      2856      2906      2908
      2854      2856      2906      2909      2855      2854      2856      2857
      2855      2854      2856      2858      2855      2854      2856      2906
      2856      2906      2909      2910      2856      2906      2909      2911
      2856      2906      2909      2912      2857      2856      2906      2907
      2857      2856      2906      2908      2857      2856      2906      2909
      2858      2856      2906      2907      2858      2856      2906      2908
      2858      2856      2906      2909      2859      2862      2865      2866
      2859      2862      2865      2867      2859      2862      2865      2868
      2860      2859      2862      2863      2860      2859      2862      2864
      2860      2859      2862      2865      2861      2859      2862      2863
      2861      2859      2862      2864      2861      2859      2862      2865
      2862      2865      2868      2869      2862      2865      2868      2870
      2862      2865      2868      2871      2863      2862      2865      2866
      2863      2862      2865      2867      2863      2862      2865      2868
      2864      2862      2865      2866      2864      2862      2865      2867
      2864      2862      2865      2868      2865      2868      2871      2872
      2865      2868      2871      2873      2865      2868      2871      2874
      2866      2865      2868      2869      2866      2865      2868      2870
      2866      2865      2868      2871      2867      2865      2868      2869
      2867      2865      2868      2870      2867      2865      2868      2871
      2868      2871      2874      2875      2868      2871      2874      2876
      2868      2871      2874      2877      2869      2868      2871      2872
      2869      2868      2871      2873      2869      2868      2871      2874
      2870      2868      2871      2872      2870      2868      2871      2873
      2870      2868      2871      2874      2871      2874      2877      2878
      2871      2874      2877      2879      2872      2871      2874      2875
      2872      2871      2874      2876      2872      2871      2874      2877
      2873      2871      2874      2875      2873      2871      2874      2876
      2873      2871      2874      2877      2874      2877      2879      2880
      2874      2877      2879      2881      2875      2874      2877      2878
      2875      2874      2877      2879      2876      2874      2877      2878
      2876      2874      2877      2879      2877      2879      2881      2882
      2877      2879      2881      2883      2877      2879      2881      2884
      2878      2877      2879      2880      2878      2877      2879      2881
      2879      2881      2884      2885      2879      2881      2884      2886
      2879      2881      2884      2887      2880      2879      2881      2882
      2880      2879      2881      2883      2880      2879      2881      2884
      2881      2884      2887      2888      2881      2884      2887      2889
      2881      2884      2887      2890      2882      2881      2884      2885
      2882      2881      2884      2886      2882      2881      2884      2887
      2883      2881      2884      2885      2883      2881      2884      2886
      2883      2881      2884      2887      2884      2887      2890      2891
      2884      2887      2890      2892      2884      2887      2890      2893
      2885      2884      2887      2888      2885      2884      2887      2889
      2885      2884      2887      2890      2886      2884      2887      2888
      2886      2884      2887      2889      2886      2884      2887      2890
      2887      2890      2893      2894      2887      2890      2893      2895
      2887      2890      2893      2896      2888      2887      2890      2891
      2888      2887      2890      2892      2888      2887      2890      2893
      2889      2887      2890      2891      2889      2887      2890      2892
      2889      2887      2890      2893      2890      2893      2896      2897
      2890      2893      2896      2898      2890      2893      2896      2899
      2891      2890      2893      2894      2891      2890      2893      2895
      2891      2890      2893      2896      2892      2890      2893      2894
      2892      2890      2893      2895      2892      2890      2893      2896
      2893      2896      2899      2900      2893      2896      2899      2901
      2893      2896      2899      2902      2894      2893      2896      2897
      2894      2893      2896      2898      2894      2893      2896      2899
      2895      2893      2896      2897      2895      2893      2896      2898
      2895      2893      2896      2899      2896      2899      2902      2903
      2896      2899      2902      2904      2896      2899      2902      2905
      2897      2896      2899      2900      2897      2896      2899      2901
      2897      2896      2899      2902      2898      2896      2899      2900
      2898      2896      2899      2901      2898      2896      2899      2902
      2900      2899      2902      2903      2900      2899      2902      2904
      2900      2899      2902      2905      2901      2899      2902      2903
      2901      2899      2902      2904      2901      2899      2902      2905
      2906      2909      2912      2913      2906      2909      2912      2914
      2906      2909      2912      2915      2907      2906      2909      2910
      2907      2906      2909      2911      2907      2906      2909      2912
      2908      2906      2909      2910      2908      2906      2909      2911
      2908      2906      2909      2912      2909      2912      2915      2916
      2909      2912      2915      2917      2909      2912      2915      2918
      2910      2909      2912      2913      2910      2909      2912      2914
      2910      2909      2912      2915      2911      2909      2912      2913
      2911      2909      2912      2914      2911      2909      2912      2915
      2912      2915      2918      2919      2912      2915      2918      2920
      2912      2915      2918      2921      2913      2912      2915      2916
      2913      2912      2915      2917      2913      2912      2915      2918
      2914      2912      2915      2916      2914      2912      2915      2917
      2914      2912      2915      2918      2915      2918      2921      2922
      2915      2918      2921      2923      2915      2918      2921      2924
      2916      2915      2918      2919      2916      2915      2918      2920
      2916      2915      2918      2921      2917      2915      2918      2919
      2917      2915      2918      2920      2917      2915      2918      2921
      2918      2921      2924      2925      2918      2921      2924      2926
      2918      2921      2924      2927      2919      2918      2921      2922
      2919      2918      2921      2923      2919      2918      2921      2924
      2920      2918      2921      2922      2920      2918      2921      2923
      2920      2918      2921      2924      2921      2924      2927      2928
      2921      2924      2927      2929      2921      2924      2927      2930
      2922      2921      2924      2925      2922      2921      2924      2926
      2922      2921      2924      2927      2923      2921      2924      2925
      2923      2921      2924      2926      2923      2921      2924      2927
      2924      2927      2930      2931      2924      2927      2930      2932
      2924      2927      2930      2933      2925      2924      2927      2928
      2925      2924      2927      2929      2925      2924      2927      2930
      2926      2924      2927      2928      2926      2924      2927      2929
      2926      2924      2927      2930      2927      2930      2933      2934
      2927      2930      2933      2935      2927      2930      2933      2936
      2928      2927      2930      2931      2928      2927      2930      2932
      2928      2927      2930      2933      2929      2927      2930      2931
      2929      2927      2930      2932      2929      2927      2930      2933
      2930      2933      2936      2937      2930      2933      2936      2938
      2930      2933      2936      2939      2931      2930      2933      2934
      2931      2930      2933      2935      2931      2930      2933      2936
      2932      2930      2933      2934      2932      2930      2933      2935
      2932      2930      2933      2936      2933      2936      2939      2940
      2933      2936      2939      2941      2933      2936      2939      2942
      2934      2933      2936      2937      2934      2933      2936      2938
      2934      2933      2936      2939      2935      2933      2936      2937
      2935      2933      2936      2938      2935      2933      2936      2939
      2936      2939      2942      2943      2936      2939      2942      2944
      2936      2939      2942      2945      2937      2936      2939      2940
      2937      2936      2939      2941      2937      2936      2939      2942
      2938      2936      2939      2940      2938      2936      2939      2941
      2938      2936      2939      2942      2939      2942      2945      2946
      2939      2942      2945      2947      2939      2942      2945      2948
      2940      2939      2942      2943      2940      2939      2942      2944
      2940      2939      2942      2945      2941      2939      2942      2943
      2941      2939      2942      2944      2941      2939      2942      2945
      2943      2942      2945      2946      2943      2942      2945      2947
      2943      2942      2945      2948      2944      2942      2945      2946
      2944      2942      2945      2947      2944      2942      2945      2948
      2949      2950      2965      2966      2949      2950      2965      2967
      2949      2950      2965      2971      2950      2949      2953      2954
      2950      2949      2953      2955      2950      2949      2953      2956
      2950      2949      2957      2958      2950      2949      2957      2959
      2950      2949      2957      2960      2950      2949      2961      2962
      2950      2949      2961      2963      2950      2949      2961      2964
      2950      2965      2971      2968      2951      2950      2949      2953
      2951      2950      2949      2957      2951      2950      2949      2961
      2951      2950      2965      2966      2951      2950      2965      2967
      2951      2950      2965      2971      2952      2950      2949      2953
      2952      2950      2949      2957      2952      2950      2949      2961
      2952      2950      2965      2966      2952      2950      2965      2967
      2952      2950      2965      2971      2953      2949      2950      2965
      2953      2949      2957      2958      2953      2949      2957      2959
      2953      2949      2957      2960      2953      2949      2961      2962
      2953      2949      2961      2963      2953      2949      2961      2964
      2954      2953      2949      2957      2954      2953      2949      2961
      2955      2953      2949      2957      2955      2953      2949      2961
      2956      2953      2949      2957      2956      2953      2949      2961
      2957      2949      2950      2965      2957      2949      2961      2962
      2957      2949      2961      2963      2957      2949      2961      2964
      2958      2957      2949      2961      2959      2957      2949      2961
      2960      2957      2949      2961      2961      2949      2950      2965
      2965      2971      2968      2969      2965      2971      2968      2970
      2965      2971      2968      2972      2966      2965      2971      2968
      2967      2965      2971      2968      2968      2972      2973      2974
      2968      2972      2973      2975      2968      2972      2973      2976
      2969      2968      2972      2973      2970      2968      2972      2973
      2971      2968      2972      2973      2972      2973      2976      2977
      2972      2973      2976      2978      2972      2973      2976      2984
      2973      2976      2978      2979      2973      2976      2984      2985
      2973      2976      2984      2986      2973      2976      2984      2987
      2974      2973      2976      2977      2974      2973      2976      2978
      2974      2973      2976      2984      2975      2973      2976      2977
      2975      2973      2976      2978      2975      2973      2976      2984
      2976      2978      2979      2980      2976      2978      2979      2981
      2976      2984      2987      2988      2977      2976      2978      2979
      2977      2976      2984      2985      2977      2976      2984      2986
      2977      2976      2984      2987      2978      2976      2984      2985
      2978      2976      2984      2986      2978      2976      2984      2987
      2978      2979      2981      2982      2978      2979      2981      2983
      2978      2979      2981      2993      2979      2978      2976      2984
      2979      2981      2993      2994      2979      2981      2993      2995
      2979      2981      2993      2996      2980      2979      2981      2982
      2980      2979      2981      2983      2980      2979      2981      2993
      2981      2993      2996      2997      2981      2993      2996      2998
      2981      2993      2996      2999      2982      2981      2993      2994
      2982      2981      2993      2995      2982      2981      2993      2996
      2983      2981      2993      2994      2983      2981      2993      2995
      2983      2981      2993      2996      2984      2987      2988      2989
      2984      2987      2988      2990      2985      2984      2987      2988
      2986      2984      2987      2988      2987      2988      2990      2991
      2987      2988      2990      2992      2987      2988      2990      3040
      2988      2990      3040      3041      2988      2990      3040      3042
      2988      2990      3040      3043      2989      2988      2990      2991
      2989      2988      2990      2992      2989      2988      2990      3040
      2990      3040      3043      3044      2990      3040      3043      3045
      2990      3040      3043      3046      2991      2990      3040      3041
      2991      2990      3040      3042      2991      2990      3040      3043
      2992      2990      3040      3041      2992      2990      3040      3042
      2992      2990      3040      3043      2993      2996      2999      3000
      2993      2996      2999      3001      2993      2996      2999      3002
      2994      2993      2996      2997      2994      2993      2996      2998
      2994      2993      2996      2999      2995      2993      2996      2997
      2995      2993      2996      2998      2995      2993      2996      2999
      2996      2999      3002      3003      2996      2999      3002      3004
      2996      2999      3002      3005      2997      2996      2999      3000
      2997      2996      2999      3001      2997      2996      2999      3002
      2998      2996      2999      3000      2998      2996      2999      3001
      2998      2996      2999      3002      2999      3002      3005      3006
      2999      3002      3005      3007      2999      3002      3005      3008
      3000      2999      3002      3003      3000      2999      3002      3004
      3000      2999      3002      3005      3001      2999      3002      3003
      3001      2999      3002      3004      3001      2999      3002      3005
      3002      3005      3008      3009      3002      3005      3008      3010
      3002      3005      3008      3011      3003      3002      3005      3006
      3003      3002      3005      3007      3003      3002      3005      3008
      3004      3002      3005      3006      3004      3002      3005      3007
      3004      3002      3005      3008      3005      3008      3011      3012
      3005      3008      3011      3013      3006      3005      3008      3009
      3006      3005      3008      3010      3006      3005      3008      3011
      3007      3005      3008      3009      3007      3005      3008      3010
      3007      3005      3008      3011      3008      3011      3013      3014
      3008      3011      3013      3015      3009      3008      3011      3012
      3009      3008      3011      3013      3010      3008      3011      3012
      3010      3008      3011      3013      3011      3013      3015      3016
      3011      3013      3015      3017      3011      3013      3015      3018
      3012      3011      3013      3014      3012      3011      3013      3015
      3013      3015      3018      3019      3013      3015      3018      3020
      3013      3015      3018      3021      3014      3013      3015      3016
      3014      3013      3015      3017      3014      3013      3015      3018
      3015      3018      3021      3022      3015      3018      3021      3023
      3015      3018      3021      3024      3016      3015      3018      3019
      3016      3015      3018      3020      3016      3015      3018      3021
      3017      3015      3018      3019      3017      3015      3018      3020
      3017      3015      3018      3021      3018      3021      3024      3025
      3018      3021      3024      3026      3018      3021      3024      3027
      3019      3018      3021      3022      3019      3018      3021      3023
      3019      3018      3021      3024      3020      3018      3021      3022
      3020      3018      3021      3023      3020      3018      3021      3024
      3021      3024      3027      3028      3021      3024      3027      3029
      3021      3024      3027      3030      3022      3021      3024      3025
      3022      3021      3024      3026      3022      3021      3024      3027
      3023      3021      3024      3025      3023      3021      3024      3026
      3023      3021      3024      3027      3024      3027      3030      3031
      3024      3027      3030      3032      3024      3027      3030      3033
      3025      3024      3027      3028      3025      3024      3027      3029
      3025      3024      3027      3030      3026      3024      3027      3028
      3026      3024      3027      3029      3026      3024      3027      3030
      3027      3030      3033      3034      3027      3030      3033      3035
      3027      3030      3033      3036      3028      3027      3030      3031
      3028      3027      3030      3032      3028      3027      3030      3033
      3029      3027      3030      3031      3029      3027      3030      3032
      3029      3027      3030      3033      3030      3033      3036      3037
      3030      3033      3036      3038      3030      3033      3036      3039
      3031      3030      3033      3034      3031      3030      3033      3035
      3031      3030      3033      3036      3032      3030      3033      3034
      3032      3030      3033      3035      3032      3030      3033      3036
      3034      3033      3036      3037      3034      3033      3036      3038
      3034      3033      3036      3039      3035      3033      3036      3037
      3035      3033      3036      3038      3035      3033      3036      3039
      3040      3043      3046      3047      3040      3043      3046      3048
      3040      3043      3046      3049      3041      3040      3043      3044
      3041      3040      3043      3045      3041      3040      3043      3046
      3042      3040      3043      3044      3042      3040      3043      3045
      3042      3040      3043      3046      3043      3046      3049      3050
      3043      3046      3049      3051      3043      3046      3049      3052
      3044      3043      3046      3047      3044      3043      3046      3048
      3044      3043      3046      3049      3045      3043      3046      3047
      3045      3043      3046      3048      3045      3043      3046      3049
      3046      3049      3052      3053      3046      3049      3052      3054
      3046      3049      3052      3055      3047      3046      3049      3050
      3047      3046      3049      3051      3047      3046      3049      3052
      3048      3046      3049      3050      3048      3046      3049      3051
      3048      3046      3049      3052      3049      3052      3055      3056
      3049      3052      3055      3057      3049      3052      3055      3058
      3050      3049      3052      3053      3050      3049      3052      3054
      3050      3049      3052      3055      3051      3049      3052      3053
      3051      3049      3052      3054      3051      3049      3052      3055
      3052      3055      3058      3059      3052      3055      3058      3060
      3052      3055      3058      3061      3053      3052      3055      3056
      3053      3052      3055      3057      3053      3052      3055      3058
      3054      3052      3055      3056      3054      3052      3055      3057
      3054      3052      3055      3058      3055      3058      3061      3062
      3055      3058      3061      3063      3055      3058      3061      3064
      3056      3055      3058      3059      3056      3055      3058      3060
      3056      3055      3058      3061      3057      3055      3058      3059
      3057      3055      3058      3060      3057      3055      3058      3061
      3058      3061      3064      3065      3058      3061      3064      3066
      3058      3061      3064      3067      3059      3058      3061      3062
      3059      3058      3061      3063      3059      3058      3061      3064
      3060      3058      3061      3062      3060      3058      3061      3063
      3060      3058      3061      3064      3061      3064      3067      3068
      3061      3064      3067      3069      3061      3064      3067      3070
      3062      3061      3064      3065      3062      3061      3064      3066
      3062      3061      3064      3067      3063      3061      3064      3065
      3063      3061      3064      3066      3063      3061      3064      3067
      3064      3067      3070      3071      3064      3067      3070      3072
      3064      3067      3070      3073      3065      3064      3067      3068
      3065      3064      3067      3069      3065      3064      3067      3070
      3066      3064      3067      3068      3066      3064      3067      3069
      3066      3064      3067      3070      3067      3070      3073      3074
      3067      3070      3073      3075      3067      3070      3073      3076
      3068      3067      3070      3071      3068      3067      3070      3072
      3068      3067      3070      3073      3069      3067      3070      3071
      3069      3067      3070      3072      3069      3067      3070      3073
      3070      3073      3076      3077      3070      3073      3076      3078
      3070      3073      3076      3079      3071      3070      3073      3074
      3071      3070      3073      3075      3071      3070      3073      3076
      3072      3070      3073      3074      3072      3070      3073      3075
      3072      3070      3073      3076      3073      3076      3079      3080
      3073      3076      3079      3081      3073      3076      3079      3082
      3074      3073      3076      3077      3074      3073      3076      3078
      3074      3073      3076      3079      3075      3073      3076      3077
      3075      3073      3076      3078      3075      3073      3076      3079
      3077      3076      3079      3080      3077      3076      3079      3081
      3077      3076      3079      3082      3078      3076      3079      3080
      3078      3076      3079      3081      3078      3076      3079      3082
      3083      3084      3099      3100      3083      3084      3099      3101
      3083      3084      3099      3105      3084      3083      3087      3088
      3084      3083      3087      3089      3084      3083      3087      3090
      3084      3083      3091      3092      3084      3083      3091      3093
      3084      3083      3091      3094      3084      3083      3095      3096
      3084      3083      3095      3097      3084      3083      3095      3098
      3084      3099      3105      3102      3085      3084      3083      3087
      3085      3084      3083      3091      3085      3084      3083      3095
      3085      3084      3099      3100      3085      3084      3099      3101
      3085      3084      3099      3105      3086      3084      3083      3087
      3086      3084      3083      3091      3086      3084      3083      3095
      3086      3084      3099      3100      3086      3084      3099      3101
      3086      3084      3099      3105      3087      3083      3084      3099
      3087      3083      3091      3092      3087      3083      3091      3093
      3087      3083      3091      3094      3087      3083      3095      3096
      3087      3083      3095      3097      3087      3083      3095      3098
      3088      3087      3083      3091      3088      3087      3083      3095
      3089      3087      3083      3091      3089      3087      3083      3095
      3090      3087      3083      3091      3090      3087      3083      3095
      3091      3083      3084      3099      3091      3083      3095      3096
      3091      3083      3095      3097      3091      3083      3095      3098
      3092      3091      3083      3095      3093      3091      3083      3095
      3094      3091      3083      3095      3095      3083      3084      3099
      3099      3105      3102      3103      3099      3105      3102      3104
      3099      3105      3102      3106      3100      3099      3105      3102
      3101      3099      3105      3102      3102      3106      3107      3108
      3102      3106      3107      3109      3102      3106      3107      3110
      3103      3102      3106      3107      3104      3102      3106      3107
      3105      3102      3106      3107      3106      3107      3110      3111
      3106      3107      3110      3112      3106      3107      3110      3118
      3107      3110      3112      3113      3107      3110      3118      3119
      3107      3110      3118      3120      3107      3110      3118      3121
      3108      3107      3110      3111      3108      3107      3110      3112
      3108      3107      3110      3118      3109      3107      3110      3111
      3109      3107      3110      3112      3109      3107      3110      3118
      3110      3112      3113      3114      3110      3112      3113      3115
      3110      3118      3121      3122      3111      3110      3112      3113
      3111      3110      3118      3119      3111      3110      3118      3120
      3111      3110      3118      3121      3112      3110      3118      3119
      3112      3110      3118      3120      3112      3110      3118      3121
      3112      3113      3115      3116      3112      3113      3115      3117
      3112      3113      3115      3127      3113      3112      3110      3118
      3113      3115      3127      3128      3113      3115      3127      3129
      3113      3115      3127      3130      3114      3113      3115      3116
      3114      3113      3115      3117      3114      3113      3115      3127
      3115      3127      3130      3131      3115      3127      3130      3132
      3115      3127      3130      3133      3116      3115      3127      3128
      3116      3115      3127      3129      3116      3115      3127      3130
      3117      3115      3127      3128      3117      3115      3127      3129
      3117      3115      3127      3130      3118      3121      3122      3123
      3118      3121      3122      3124      3119      3118      3121      3122
      3120      3118      3121      3122      3121      3122      3124      3125
      3121      3122      3124      3126      3121      3122      3124      3174
      3122      3124      3174      3175      3122      3124      3174      3176
      3122      3124      3174      3177      3123      3122      3124      3125
      3123      3122      3124      3126      3123      3122      3124      3174
      3124      3174      3177      3178      3124      3174      3177      3179
      3124      3174      3177      3180      3125      3124      3174      3175
      3125      3124      3174      3176      3125      3124      3174      3177
      3126      3124      3174      3175      3126      3124      3174      3176
      3126      3124      3174      3177      3127      3130      3133      3134
      3127      3130      3133      3135      3127      3130      3133      3136
      3128      3127      3130      3131      3128      3127      3130      3132
      3128      3127      3130      3133      3129      3127      3130      3131
      3129      3127      3130      3132      3129      3127      3130      3133
      3130      3133      3136      3137      3130      3133      3136      3138
      3130      3133      3136      3139      3131      3130      3133      3134
      3131      3130      3133      3135      3131      3130      3133      3136
      3132      3130      3133      3134      3132      3130      3133      3135
      3132      3130      3133      3136      3133      3136      3139      3140
      3133      3136      3139      3141      3133      3136      3139      3142
      3134      3133      3136      3137      3134      3133      3136      3138
      3134      3133      3136      3139      3135      3133      3136      3137
      3135      3133      3136      3138      3135      3133      3136      3139
      3136      3139      3142      3143      3136      3139      3142      3144
      3136      3139      3142      3145      3137      3136      3139      3140
      3137      3136      3139      3141      3137      3136      3139      3142
      3138      3136      3139      3140      3138      3136      3139      3141
      3138      3136      3139      3142      3139      3142      3145      3146
      3139      3142      3145      3147      3140      3139      3142      3143
      3140      3139      3142      3144      3140      3139      3142      3145
      3141      3139      3142      3143      3141      3139      3142      3144
      3141      3139      3142      3145      3142      3145      3147      3148
      3142      3145      3147      3149      3143      3142      3145      3146
      3143      3142      3145      3147      3144      3142      3145      3146
      3144      3142      3145      3147      3145      3147      3149      3150
      3145      3147      3149      3151      3145      3147      3149      3152
      3146      3145      3147      3148      3146      3145      3147      3149
      3147      3149      3152      3153      3147      3149      3152      3154
      3147      3149      3152      3155      3148      3147      3149      3150
      3148      3147      3149      3151      3148      3147      3149      3152
      3149      3152      3155      3156      3149      3152      3155      3157
      3149      3152      3155      3158      3150      3149      3152      3153
      3150      3149      3152      3154      3150      3149      3152      3155
      3151      3149      3152      3153      3151      3149      3152      3154
      3151      3149      3152      3155      3152      3155      3158      3159
      3152      3155      3158      3160      3152      3155      3158      3161
      3153      3152      3155      3156      3153      3152      3155      3157
      3153      3152      3155      3158      3154      3152      3155      3156
      3154      3152      3155      3157      3154      3152      3155      3158
      3155      3158      3161      3162      3155      3158      3161      3163
      3155      3158      3161      3164      3156      3155      3158      3159
      3156      3155      3158      3160      3156      3155      3158      3161
      3157      3155      3158      3159      3157      3155      3158      3160
      3157      3155      3158      3161      3158      3161      3164      3165
      3158      3161      3164      3166      3158      3161      3164      3167
      3159      3158      3161      3162      3159      3158      3161      3163
      3159      3158      3161      3164      3160      3158      3161      3162
      3160      3158      3161      3163      3160      3158      3161      3164
      3161      3164      3167      3168      3161      3164      3167      3169
      3161      3164      3167      3170      3162      3161      3164      3165
      3162      3161      3164      3166      3162      3161      3164      3167
      3163      3161      3164      3165      3163      3161      3164      3166
      3163      3161      3164      3167      3164      3167      3170      3171
      3164      3167      3170      3172      3164      3167      3170      3173
      3165      3164      3167      3168      3165      3164      3167      3169
      3165      3164      3167      3170      3166      3164      3167      3168
      3166      3164      3167      3169      3166      3164      3167      3170
      3168      3167      3170      3171      3168      3167      3170      3172
      3168      3167      3170      3173      3169      3167      3170      3171
      3169      3167      3170      3172      3169      3167      3170      3173
      3174      3177      3180      3181      3174      3177      3180      3182
      3174      3177      3180      3183      3175      3174      3177      3178
      3175      3174      3177      3179      3175      3174      3177      3180
      3176      3174      3177      3178      3176      3174      3177      3179
      3176      3174      3177      3180      3177      3180      3183      3184
      3177      3180      3183      3185      3177      3180      3183      3186
      3178      3177      3180      3181      3178      3177      3180      3182
      3178      3177      3180      3183      3179      3177      3180      3181
      3179      3177      3180      3182      3179      3177      3180      3183
      3180      3183      3186      3187      3180      3183      3186      3188
      3180      3183      3186      3189      3181      3180      3183      3184
      3181      3180      3183      3185      3181      3180      3183      3186
      3182      3180      3183      3184      3182      3180      3183      3185
      3182      3180      3183      3186      3183      3186      3189      3190
      3183      3186      3189      3191      3183      3186      3189      3192
      3184      3183      3186      3187      3184      3183      3186      3188
      3184      3183      3186      3189      3185      3183      3186      3187
      3185      3183      3186      3188      3185      3183      3186      3189
      3186      3189      3192      3193      3186      3189      3192      3194
      3186      3189      3192      3195      3187      3186      3189      3190
      3187      3186      3189      3191      3187      3186      3189      3192
      3188      3186      3189      3190      3188      3186      3189      3191
      3188      3186      3189      3192      3189      3192      3195      3196
      3189      3192      3195      3197      3189      3192      3195      3198
      3190      3189      3192      3193      3190      3189      3192      3194
      3190      3189      3192      3195      3191      3189      3192      3193
      3191      3189      3192      3194      3191      3189      3192      3195
      3192      3195      3198      3199      3192      3195      3198      3200
      3192      3195      3198      3201      3193      3192      3195      3196
      3193      3192      3195      3197      3193      3192      3195      3198
      3194      3192      3195      3196      3194      3192      3195      3197
      3194      3192      3195      3198      3195      3198      3201      3202
      3195      3198      3201      3203      3195      3198      3201      3204
      3196      3195      3198      3199      3196      3195      3198      3200
      3196      3195      3198      3201      3197      3195      3198      3199
      3197      3195      3198      3200      3197      3195      3198      3201
      3198      3201      3204      3205      3198      3201      3204      3206
      3198      3201      3204      3207      3199      3198      3201      3202
      3199      3198      3201      3203      3199      3198      3201      3204
      3200      3198      3201      3202      3200      3198      3201      3203
      3200      3198      3201      3204      3201      3204      3207      3208
      3201      3204      3207      3209      3201      3204      3207      3210
      3202      3201      3204      3205      3202      3201      3204      3206
      3202      3201      3204      3207      3203      3201      3204      3205
      3203      3201      3204      3206      3203      3201      3204      3207
      3204      3207      3210      3211      3204      3207      3210      3212
      3204      3207      3210      3213      3205      3204      3207      3208
      3205      3204      3207      3209      3205      3204      3207      3210
      3206      3204      3207      3208      3206      3204      3207      3209
      3206      3204      3207      3210      3207      3210      3213      3214
      3207      3210      3213      3215      3207      3210      3213      3216
      3208      3207      3210      3211      3208      3207      3210      3212
      3208      3207      3210      3213      3209      3207      3210      3211
      3209      3207      3210      3212      3209      3207      3210      3213
      3211      3210      3213      3214      3211      3210      3213      3215
      3211      3210      3213      3216      3212      3210      3213      3214
      3212      3210      3213      3215      3212      3210      3213      3216
      3217      3218      3233      3234      3217      3218      3233      3235
      3217      3218      3233      3239      3218      3217      3221      3222
      3218      3217      3221      3223      3218      3217      3221      3224
      3218      3217      3225      3226      3218      3217      3225      3227
      3218      3217      3225      3228      3218      3217      3229      3230
      3218      3217      3229      3231      3218      3217      3229      3232
      3218      3233      3239      3236      3219      3218      3217      3221
      3219      3218      3217      3225      3219      3218      3217      3229
      3219      3218      3233      3234      3219      3218      3233      3235
      3219      3218      3233      3239      3220      3218      3217      3221
      3220      3218      3217      3225      3220      3218      3217      3229
      3220      3218      3233      3234      3220      3218      3233      3235
      3220      3218      3233      3239      3221      3217      3218      3233
      3221      3217      3225      3226      3221      3217      3225      3227
      3221      3217      3225      3228      3221      3217      3229      3230
      3221      3217      3229      3231      3221      3217      3229      3232
      3222      3221      3217      3225      3222      3221      3217      3229
      3223      3221      3217      3225      3223      3221      3217      3229
      3224      3221      3217      3225      3224      3221      3217      3229
      3225      3217      3218      3233      3225      3217      3229      3230
      3225      3217      3229      3231      3225      3217      3229      3232
      3226      3225      3217      3229      3227      3225      3217      3229
      3228      3225      3217      3229      3229      3217      3218      3233
      3233      3239      3236      3237      3233      3239      3236      3238
      3233      3239      3236      3240      3234      3233      3239      3236
      3235      3233      3239      3236      3236      3240      3241      3242
      3236      3240      3241      3243      3236      3240      3241      3244
      3237      3236      3240      3241      3238      3236      3240      3241
      3239      3236      3240      3241      3240      3241      3244      3245
      3240      3241      3244      3246      3240      3241      3244      3252
      3241      3244      3246      3247      3241      3244      3252      3253
      3241      3244      3252      3254      3241      3244      3252      3255
      3242      3241      3244      3245      3242      3241      3244      3246
      3242      3241      3244      3252      3243      3241      3244      3245
      3243      3241      3244      3246      3243      3241      3244      3252
      3244      3246      3247      3248      3244      3246      3247      3249
      3244      3252      3255      3256      3245      3244      3246      3247
      3245      3244      3252      3253      3245      3244      3252      3254
      3245      3244      3252      3255      3246      3244      3252      3253
      3246      3244      3252      3254      3246      3244      3252      3255
      3246      3247      3249      3250      3246      3247      3249      3251
      3246      3247      3249      3261      3247      3246      3244      3252
      3247      3249      3261      3262      3247      3249      3261      3263
      3247      3249      3261      3264      3248      3247      3249      3250
      3248      3247      3249      3251      3248      3247      3249      3261
      3249      3261      3264      3265      3249      3261      3264      3266
      3249      3261      3264      3267      3250      3249      3261      3262
      3250      3249      3261      3263      3250      3249      3261      3264
      3251      3249      3261      3262      3251      3249      3261      3263
      3251      3249      3261      3264      3252      3255      3256      3257
      3252      3255      3256      3258      3253      3252      3255      3256
      3254      3252      3255      3256      3255      3256      3258      3259
      3255      3256      3258      3260      3255      3256      3258      3308
      3256      3258      3308      3309      3256      3258      3308      3310
      3256      3258      3308      3311      3257      3256      3258      3259
      3257      3256      3258      3260      3257      3256      3258      3308
      3258      3308      3311      3312      3258      3308      3311      3313
      3258      3308      3311      3314      3259      3258      3308      3309
      3259      3258      3308      3310      3259      3258      3308      3311
      3260      3258      3308      3309      3260      3258      3308      3310
      3260      3258      3308      3311      3261      3264      3267      3268
      3261      3264      3267      3269      3261      3264      3267      3270
      3262      3261      3264      3265      3262      3261      3264      3266
      3262      3261      3264      3267      3263      3261      3264      3265
      3263      3261      3264      3266      3263      3261      3264      3267
      3264      3267      3270      3271      3264      3267      3270      3272
      3264      3267      3270      3273      3265      3264      3267      3268
      3265      3264      3267      3269      3265      3264      3267      3270
      3266      3264      3267      3268      3266      3264      3267      3269
      3266      3264      3267      3270      3267      3270      3273      3274
      3267      3270      3273      3275      3267      3270      3273      3276
      3268      3267      3270      3271      3268      3267      3270      3272
      3268      3267      3270      3273      3269      3267      3270      3271
      3269      3267      3270      3272      3269      3267      3270      3273
      3270      3273      3276      3277      3270      3273      3276      3278
      3270      3273      3276      3279      3271      3270      3273      3274
      3271      3270      3273      3275      3271      3270      3273      3276
      3272      3270      3273      3274      3272      3270      3273      3275
      3272      3270      3273      3276      3273      3276      3279      3280
      3273      3276      3279      3281      3274      3273      3276      3277
      3274      3273      3276      3278      3274      3273      3276      3279
      3275      3273      3276      3277      3275      3273      3276      3278
      3275      3273      3276      3279      3276      3279      3281      3282
      3276      3279      3281      3283      3277      3276      3279      3280
      3277      3276      3279      3281      3278      3276      3279      3280
      3278      3276      3279      3281      3279      3281      3283      3284
      3279      3281      3283      3285      3279      3281      3283      3286
      3280      3279      3281      3282      3280      3279      3281      3283
      3281      3283      3286      3287      3281      3283      3286      3288
      3281      3283      3286      3289      3282      3281      3283      3284
      3282      3281      3283      3285      3282      3281      3283      3286
      3283      3286      3289      3290      3283      3286      3289      3291
      3283      3286      3289      3292      3284      3283      3286      3287
      3284      3283      3286      3288      3284      3283      3286      3289
      3285      3283      3286      3287      3285      3283      3286      3288
      3285      3283      3286      3289      3286      3289      3292      3293
      3286      3289      3292      3294      3286      3289      3292      3295
      3287      3286      3289      3290      3287      3286      3289      3291
      3287      3286      3289      3292      3288      3286      3289      3290
      3288      3286      3289      3291      3288      3286      3289      3292
      3289      3292      3295      3296      3289      3292      3295      3297
      3289      3292      3295      3298      3290      3289      3292      3293
      3290      3289      3292      3294      3290      3289      3292      3295
      3291      3289      3292      3293      3291      3289      3292      3294
      3291      3289      3292      3295      3292      3295      3298      3299
      3292      3295      3298      3300      3292      3295      3298      3301
      3293      3292      3295      3296      3293      3292      3295      3297
      3293      3292      3295      3298      3294      3292      3295      3296
      3294      3292      3295      3297      3294      3292      3295      3298
      3295      3298      3301      3302      3295      3298      3301      3303
      3295      3298      3301      3304      3296      3295      3298      3299
      3296      3295      3298      3300      3296      3295      3298      3301
      3297      3295      3298      3299      3297      3295      3298      3300
      3297      3295      3298      3301      3298      3301      3304      3305
      3298      3301      3304      3306      3298      3301      3304      3307
      3299      3298      3301      3302      3299      3298      3301      3303
      3299      3298      3301      3304      3300      3298      3301      3302
      3300      3298      3301      3303      3300      3298      3301      3304
      3302      3301      3304      3305      3302      3301      3304      3306
      3302      3301      3304      3307      3303      3301      3304      3305
      3303      3301      3304      3306      3303      3301      3304      3307
      3308      3311      3314      3315      3308      3311      3314      3316
      3308      3311      3314      3317      3309      3308      3311      3312
      3309      3308      3311      3313      3309      3308      3311      3314
      3310      3308      3311      3312      3310      3308      3311      3313
      3310      3308      3311      3314      3311      3314      3317      3318
      3311      3314      3317      3319      3311      3314      3317      3320
      3312      3311      3314      3315      3312      3311      3314      3316
      3312      3311      3314      3317      3313      3311      3314      3315
      3313      3311      3314      3316      3313      3311      3314      3317
      3314      3317      3320      3321      3314      3317      3320      3322
      3314      3317      3320      3323      3315      3314      3317      3318
      3315      3314      3317      3319      3315      3314      3317      3320
      3316      3314      3317      3318      3316      3314      3317      3319
      3316      3314      3317      3320      3317      3320      3323      3324
      3317      3320      3323      3325      3317      3320      3323      3326
      3318      3317      3320      3321      3318      3317      3320      3322
      3318      3317      3320      3323      3319      3317      3320      3321
      3319      3317      3320      3322      3319      3317      3320      3323
      3320      3323      3326      3327      3320      3323      3326      3328
      3320      3323      3326      3329      3321      3320      3323      3324
      3321      3320      3323      3325      3321      3320      3323      3326
      3322      3320      3323      3324      3322      3320      3323      3325
      3322      3320      3323      3326      3323      3326      3329      3330
      3323      3326      3329      3331      3323      3326      3329      3332
      3324      3323      3326      3327      3324      3323      3326      3328
      3324      3323      3326      3329      3325      3323      3326      3327
      3325      3323      3326      3328      3325      3323      3326      3329
      3326      3329      3332      3333      3326      3329      3332      3334
      3326      3329      3332      3335      3327      3326      3329      3330
      3327      3326      3329      3331      3327      3326      3329      3332
      3328      3326      3329      3330      3328      3326      3329      3331
      3328      3326      3329      3332      3329      3332      3335      3336
      3329      3332      3335      3337      3329      3332      3335      3338
      3330      3329      3332      3333      3330      3329      3332      3334
      3330      3329      3332      3335      3331      3329      3332      3333
      3331      3329      3332      3334      3331      3329      3332      3335
      3332      3335      3338      3339      3332      3335      3338      3340
      3332      3335      3338      3341      3333      3332      3335      3336
      3333      3332      3335      3337      3333      3332      3335      3338
      3334      3332      3335      3336      3334      3332      3335      3337
      3334      3332      3335      3338      3335      3338      3341      3342
      3335      3338      3341      3343      3335      3338      3341      3344
      3336      3335      3338      3339      3336      3335      3338      3340
      3336      3335      3338      3341      3337      3335      3338      3339
      3337      3335      3338      3340      3337      3335      3338      3341
      3338      3341      3344      3345      3338      3341      3344      3346
      3338      3341      3344      3347      3339      3338      3341      3342
      3339      3338      3341      3343      3339      3338      3341      3344
      3340      3338      3341      3342      3340      3338      3341      3343
      3340      3338      3341      3344      3341      3344      3347      3348
      3341      3344      3347      3349      3341      3344      3347      3350
      3342      3341      3344      3345      3342      3341      3344      3346
      3342      3341      3344      3347      3343      3341      3344      3345
      3343      3341      3344      3346      3343      3341      3344      3347
      3345      3344      3347      3348      3345      3344      3347      3349
      3345      3344      3347      3350      3346      3344      3347      3348
      3346      3344      3347      3349      3346      3344      3347      3350
      3351      3352      3367      3368      3351      3352      3367      3369
      3351      3352      3367      3373      3352      3351      3355      3356
      3352      3351      3355      3357      3352      3351      3355      3358
      3352      3351      3359      3360      3352      3351      3359      3361
      3352      3351      3359      3362      3352      3351      3363      3364
      3352      3351      3363      3365      3352      3351      3363      3366
      3352      3367      3373      3370      3353      3352      3351      3355
      3353      3352      3351      3359      3353      3352      3351      3363
      3353      3352      3367      3368      3353      3352      3367      3369
      3353      3352      3367      3373      3354      3352      3351      3355
      3354      3352      3351      3359      3354      3352      3351      3363
      3354      3352      3367      3368      3354      3352      3367      3369
      3354      3352      3367      3373      3355      3351      3352      3367
      3355      3351      3359      3360      3355      3351      3359      3361
      3355      3351      3359      3362      3355      3351      3363      3364
      3355      3351      3363      3365      3355      3351      3363      3366
      3356      3355      3351      3359      3356      3355      3351      3363
      3357      3355      3351      3359      3357      3355      3351      3363
      3358      3355      3351      3359      3358      3355      3351      3363
      3359      3351      3352      3367      3359      3351      3363      3364
      3359      3351      3363      3365      3359      3351      3363      3366
      3360      3359      3351      3363      3361      3359      3351      3363
      3362      3359      3351      3363      3363      3351      3352      3367
      3367      3373      3370      3371      3367      3373      3370      3372
      3367      3373      3370      3374      3368      3367      3373      3370
      3369      3367      3373      3370      3370      3374      3375      3376
      3370      3374      3375      3377      3370      3374      3375      3378
      3371      3370      3374      3375      3372      3370      3374      3375
      3373      3370      3374      3375      3374      3375      3378      3379
      3374      3375      3378      3380      3374      3375      3378      3386
      3375      3378      3380      3381      3375      3378      3386      3387
      3375      3378      3386      3388      3375      3378      3386      3389
      3376      3375      3378      3379      3376      3375      3378      3380
      3376      3375      3378      3386      3377      3375      3378      3379
      3377      3375      3378      3380      3377      3375      3378      3386
      3378      3380      3381      3382      3378      3380      3381      3383
      3378      3386      3389      3390      3379      3378      3380      3381
      3379      3378      3386      3387      3379      3378      3386      3388
      3379      3378      3386      3389      3380      3378      3386      3387
      3380      3378      3386      3388      3380      3378      3386      3389
      3380      3381      3383      3384      3380      3381      3383      3385
      3380      3381      3383      3395      3381      3380      3378      3386
      3381      3383      3395      3396      3381      3383      3395      3397
      3381      3383      3395      3398      3382      3381      3383      3384
      3382      3381      3383      3385      3382      3381      3383      3395
      3383      3395      3398      3399      3383      3395      3398      3400
      3383      3395      3398      3401      3384      3383      3395      3396
      3384      3383      3395      3397      3384      3383      3395      3398
      3385      3383      3395      3396      3385      3383      3395      3397
      3385      3383      3395      3398      3386      3389      3390      3391
      3386      3389      3390      3392      3387      3386      3389      3390
      3388      3386      3389      3390      3389      3390      3392      3393
      3389      3390      3392      3394      3389      3390      3392      3442
      3390      3392      3442      3443      3390      3392      3442      3444
      3390      3392      3442      3445      3391      3390      3392      3393
      3391      3390      3392      3394      3391      3390      3392      3442
      3392      3442      3445      3446      3392      3442      3445      3447
      3392      3442      3445      3448      3393      3392      3442      3443
      3393      3392      3442      3444      3393      3392      3442      3445
      3394      3392      3442      3443      3394      3392      3442      3444
      3394      3392      3442      3445      3395      3398      3401      3402
      3395      3398      3401      3403      3395      3398      3401      3404
      3396      3395      3398      3399      3396      3395      3398      3400
      3396      3395      3398      3401      3397      3395      3398      3399
      3397      3395      3398      3400      3397      3395      3398      3401
      3398      3401      3404      3405      3398      3401      3404      3406
      3398      3401      3404      3407      3399      3398      3401      3402
      3399      3398      3401      3403      3399      3398      3401      3404
      3400      3398      3401      3402      3400      3398      3401      3403
      3400      3398      3401      3404      3401      3404      3407      3408
      3401      3404      3407      3409      3401      3404      3407      3410
      3402      3401      3404      3405      3402      3401      3404      3406
      3402      3401      3404      3407      3403      3401      3404      3405
      3403      3401      3404      3406      3403      3401      3404      3407
      3404      3407      3410      3411      3404      3407      3410      3412
      3404      3407      3410      3413      3405      3404      3407      3408
      3405      3404      3407      3409      3405      3404      3407      3410
      3406      3404      3407      3408      3406      3404      3407      3409
      3406      3404      3407      3410      3407      3410      3413      3414
      3407      3410      3413      3415      3408      3407      3410      3411
      3408      3407      3410      3412      3408      3407      3410      3413
      3409      3407      3410      3411      3409      3407      3410      3412
      3409      3407      3410      3413      3410      3413      3415      3416
      3410      3413      3415      3417      3411      3410      3413      3414
      3411      3410      3413      3415      3412      3410      3413      3414
      3412      3410      3413      3415      3413      3415      3417      3418
      3413      3415      3417      3419      3413      3415      3417      3420
      3414      3413      3415      3416      3414      3413      3415      3417
      3415      3417      3420      3421      3415      3417      3420      3422
      3415      3417      3420      3423      3416      3415      3417      3418
      3416      3415      3417      3419      3416      3415      3417      3420
      3417      3420      3423      3424      3417      3420      3423      3425
      3417      3420      3423      3426      3418      3417      3420      3421
      3418      3417      3420      3422      3418      3417      3420      3423
      3419      3417      3420      3421      3419      3417      3420      3422
      3419      3417      3420      3423      3420      3423      3426      3427
      3420      3423      3426      3428      3420      3423      3426      3429
      3421      3420      3423      3424      3421      3420      3423      3425
      3421      3420      3423      3426      3422      3420      3423      3424
      3422      3420      3423      3425      3422      3420      3423      3426
      3423      3426      3429      3430      3423      3426      3429      3431
      3423      3426      3429      3432      3424      3423      3426      3427
      3424      3423      3426      3428      3424      3423      3426      3429
      3425      3423      3426      3427      3425      3423      3426      3428
      3425      3423      3426      3429      3426      3429      3432      3433
      3426      3429      3432      3434      3426      3429      3432      3435
      3427      3426      3429      3430      3427      3426      3429      3431
      3427      3426      3429      3432      3428      3426      3429      3430
      3428      3426      3429      3431      3428      3426      3429      3432
      3429      3432      3435      3436      3429      3432      3435      3437
      3429      3432      3435      3438      3430      3429      3432      3433
      3430      3429      3432      3434      3430      3429      3432      3435
      3431      3429      3432      3433      3431      3429      3432      3434
      3431      3429      3432      3435      3432      3435      3438      3439
      3432      3435      3438      3440      3432      3435      3438      3441
      3433      3432      3435      3436      3433      3432      3435      3437
      3433      3432      3435      3438      3434      3432      3435      3436
      3434      3432      3435      3437      3434      3432      3435      3438
      3436      3435      3438      3439      3436      3435      3438      3440
      3436      3435      3438      3441      3437      3435      3438      3439
      3437      3435      3438      3440      3437      3435      3438      3441
      3442      3445      3448      3449      3442      3445      3448      3450
      3442      3445      3448      3451      3443      3442      3445      3446
      3443      3442      3445      3447      3443      3442      3445      3448
      3444      3442      3445      3446      3444      3442      3445      3447
      3444      3442      3445      3448      3445      3448      3451      3452
      3445      3448      3451      3453      3445      3448      3451      3454
      3446      3445      3448      3449      3446      3445      3448      3450
      3446      3445      3448      3451      3447      3445      3448      3449
      3447      3445      3448      3450      3447      3445      3448      3451
      3448      3451      3454      3455      3448      3451      3454      3456
      3448      3451      3454      3457      3449      3448      3451      3452
      3449      3448      3451      3453      3449      3448      3451      3454
      3450      3448      3451      3452      3450      3448      3451      3453
      3450      3448      3451      3454      3451      3454      3457      3458
      3451      3454      3457      3459      3451      3454      3457      3460
      3452      3451      3454      3455      3452      3451      3454      3456
      3452      3451      3454      3457      3453      3451      3454      3455
      3453      3451      3454      3456      3453      3451      3454      3457
      3454      3457      3460      3461      3454      3457      3460      3462
      3454      3457      3460      3463      3455      3454      3457      3458
      3455      3454      3457      3459      3455      3454      3457      3460
      3456      3454      3457      3458      3456      3454      3457      3459
      3456      3454      3457      3460      3457      3460      3463      3464
      3457      3460      3463      3465      3457      3460      3463      3466
      3458      3457      3460      3461      3458      3457      3460      3462
      3458      3457      3460      3463      3459      3457      3460      3461
      3459      3457      3460      3462      3459      3457      3460      3463
      3460      3463      3466      3467      3460      3463      3466      3468
      3460      3463      3466      3469      3461      3460      3463      3464
      3461      3460      3463      3465      3461      3460      3463      3466
      3462      3460      3463      3464      3462      3460      3463      3465
      3462      3460      3463      3466      3463      3466      3469      3470
      3463      3466      3469      3471      3463      3466      3469      3472
      3464      3463      3466      3467      3464      3463      3466      3468
      3464      3463      3466      3469      3465      3463      3466      3467
      3465      3463      3466      3468      3465      3463      3466      3469
      3466      3469      3472      3473      3466      3469      3472      3474
      3466      3469      3472      3475      3467      3466      3469      3470
      3467      3466      3469      3471      3467      3466      3469      3472
      3468      3466      3469      3470      3468      3466      3469      3471
      3468      3466      3469      3472      3469      3472      3475      3476
      3469      3472      3475      3477      3469      3472      3475      3478
      3470      3469      3472      3473      3470      3469      3472      3474
      3470      3469      3472      3475      3471      3469      3472      3473
      3471      3469      3472      3474      3471      3469      3472      3475
      3472      3475      3478      3479      3472      3475      3478      3480
      3472      3475      3478      3481      3473      3472      3475      3476
      3473      3472      3475      3477      3473      3472      3475      3478
      3474      3472      3475      3476      3474      3472      3475      3477
      3474      3472      3475      3478      3475      3478      3481      3482
      3475      3478      3481      3483      3475      3478      3481      3484
      3476      3475      3478      3479      3476      3475      3478      3480
      3476      3475      3478      3481      3477      3475      3478      3479
      3477      3475      3478      3480      3477      3475      3478      3481
      3479      3478      3481      3482      3479      3478      3481      3483
      3479      3478      3481      3484      3480      3478      3481      3482
      3480      3478      3481      3483      3480      3478      3481      3484
      3485      3486      3501      3502      3485      3486      3501      3503
      3485      3486      3501      3507      3486      3485      3489      3490
      3486      3485      3489      3491      3486      3485      3489      3492
      3486      3485      3493      3494      3486      3485      3493      3495
      3486      3485      3493      3496      3486      3485      3497      3498
      3486      3485      3497      3499      3486      3485      3497      3500
      3486      3501      3507      3504      3487      3486      3485      3489
      3487      3486      3485      3493      3487      3486      3485      3497
      3487      3486      3501      3502      3487      3486      3501      3503
      3487      3486      3501      3507      3488      3486      3485      3489
      3488      3486      3485      3493      3488      3486      3485      3497
      3488      3486      3501      3502      3488      3486      3501      3503
      3488      3486      3501      3507      3489      3485      3486      3501
      3489      3485      3493      3494      3489      3485      3493      3495
      3489      3485      3493      3496      3489      3485      3497      3498
      3489      3485      3497      3499      3489      3485      3497      3500
      3490      3489      3485      3493      3490      3489      3485      3497
      3491      3489      3485      3493      3491      3489      3485      3497
      3492      3489      3485      3493      3492      3489      3485      3497
      3493      3485      3486      3501      3493      3485      3497      3498
      3493      3485      3497      3499      3493      3485      3497      3500
      3494      3493      3485      3497      3495      3493      3485      3497
      3496      3493      3485      3497      3497      3485      3486      3501
      3501      3507      3504      3505      3501      3507      3504      3506
      3501      3507      3504      3508      3502      3501      3507      3504
      3503      3501      3507      3504      3504      3508      3509      3510
      3504      3508      3509      3511      3504      3508      3509      3512
      3505      3504      3508      3509      3506      3504      3508      3509
      3507      3504      3508      3509      3508      3509      3512      3513
      3508      3509      3512      3514      3508      3509      3512      3520
      3509      3512      3514      3515      3509      3512      3520      3521
      3509      3512      3520      3522      3509      3512      3520      3523
      3510      3509      3512      3513      3510      3509      3512      3514
      3510      3509      3512      3520      3511      3509      3512      3513
      3511      3509      3512      3514      3511      3509      3512      3520
      3512      3514      3515      3516      3512      3514      3515      3517
      3512      3520      3523      3524      3513      3512      3514      3515
      3513      3512      3520      3521      3513      3512      3520      3522
      3513      3512      3520      3523      3514      3512      3520      3521
      3514      3512      3520      3522      3514      3512      3520      3523
      3514      3515      3517      3518      3514      3515      3517      3519
      3514      3515      3517      3529      3515      3514      3512      3520
      3515      3517      3529      3530      3515      3517      3529      3531
      3515      3517      3529      3532      3516      3515      3517      3518
      3516      3515      3517      3519      3516      3515      3517      3529
      3517      3529      3532      3533      3517      3529      3532      3534
      3517      3529      3532      3535      3518      3517      3529      3530
      3518      3517      3529      3531      3518      3517      3529      3532
      3519      3517      3529      3530      3519      3517      3529      3531
      3519      3517      3529      3532      3520      3523      3524      3525
      3520      3523      3524      3526      3521      3520      3523      3524
      3522      3520      3523      3524      3523      3524      3526      3527
      3523      3524      3526      3528      3523      3524      3526      3576
      3524      3526      3576      3577      3524      3526      3576      3578
      3524      3526      3576      3579      3525      3524      3526      3527
      3525      3524      3526      3528      3525      3524      3526      3576
      3526      3576      3579      3580      3526      3576      3579      3581
      3526      3576      3579      3582      3527      3526      3576      3577
      3527      3526      3576      3578      3527      3526      3576      3579
      3528      3526      3576      3577      3528      3526      3576      3578
      3528      3526      3576      3579      3529      3532      3535      3536
      3529      3532      3535      3537      3529      3532      3535      3538
      3530      3529      3532      3533      3530      3529      3532      3534
      3530      3529      3532      3535      3531      3529      3532      3533
      3531      3529      3532      3534      3531      3529      3532      3535
      3532      3535      3538      3539      3532      3535      3538      3540
      3532      3535      3538      3541      3533      3532      3535      3536
      3533      3532      3535      3537      3533      3532      3535      3538
      3534      3532      3535      3536      3534      3532      3535      3537
      3534      3532      3535      3538      3535      3538      3541      3542
      3535      3538      3541      3543      3535      3538      3541      3544
      3536      3535      3538      3539      3536      3535      3538      3540
      3536      3535      3538      3541      3537      3535      3538      3539
      3537      3535      3538      3540      3537      3535      3538      3541
      3538      3541      3544      3545      3538      3541      3544      3546
      3538      3541      3544      3547      3539      3538      3541      3542
      3539      3538      3541      3543      3539      3538      3541      3544
      3540      3538      3541      3542      3540      3538      3541      3543
      3540      3538      3541      3544      3541      3544      3547      3548
      3541      3544      3547      3549      3542      3541      3544      3545
      3542      3541      3544      3546      3542      3541      3544      3547
      3543      3541      3544      3545      3543      3541      3544      3546
      3543      3541      3544      3547      3544      3547      3549      3550
      3544      3547      3549      3551      3545      3544      3547      3548
      3545      3544      3547      3549      3546      3544      3547      3548
      3546      3544      3547      3549      3547      3549      3551      3552
      3547      3549      3551      3553      3547      3549      3551      3554
      3548      3547      3549      3550      3548      3547      3549      3551
      3549      3551      3554      3555      3549      3551      3554      3556
      3549      3551      3554      3557      3550      3549      3551      3552
      3550      3549      3551      3553      3550      3549      3551      3554
      3551      3554      3557      3558      3551      3554      3557      3559
      3551      3554      3557      3560      3552      3551      3554      3555
      3552      3551      3554      3556      3552      3551      3554      3557
      3553      3551      3554      3555      3553      3551      3554      3556
      3553      3551      3554      3557      3554      3557      3560      3561
      3554      3557      3560      3562      3554      3557      3560      3563
      3555      3554      3557      3558      3555      3554      3557      3559
      3555      3554      3557      3560      3556      3554      3557      3558
      3556      3554      3557      3559      3556      3554      3557      3560
      3557      3560      3563      3564      3557      3560      3563      3565
      3557      3560      3563      3566      3558      3557      3560      3561
      3558      3557      3560      3562      3558      3557      3560      3563
      3559      3557      3560      3561      3559      3557      3560      3562
      3559      3557      3560      3563      3560      3563      3566      3567
      3560      3563      3566      3568      3560      3563      3566      3569
      3561      3560      3563      3564      3561      3560      3563      3565
      3561      3560      3563      3566      3562      3560      3563      3564
      3562      3560      3563      3565      3562      3560      3563      3566
      3563      3566      3569      3570      3563      3566      3569      3571
      3563      3566      3569      3572      3564      3563      3566      3567
      3564      3563      3566      3568      3564      3563      3566      3569
      3565      3563      3566      3567      3565      3563      3566      3568
      3565      3563      3566      3569      3566      3569      3572      3573
      3566      3569      3572      3574      3566      3569      3572      3575
      3567      3566      3569      3570      3567      3566      3569      3571
      3567      3566      3569      3572      3568      3566      3569      3570
      3568      3566      3569      3571      3568      3566      3569      3572
      3570      3569      3572      3573      3570      3569      3572      3574
      3570      3569      3572      3575      3571      3569      3572      3573
      3571      3569      3572      3574      3571      3569      3572      3575
      3576      3579      3582      3583      3576      3579      3582      3584
      3576      3579      3582      3585      3577      3576      3579      3580
      3577      3576      3579      3581      3577      3576      3579      3582
      3578      3576      3579      3580      3578      3576      3579      3581
      3578      3576      3579      3582      3579      3582      3585      3586
      3579      3582      3585      3587      3579      3582      3585      3588
      3580      3579      3582      3583      3580      3579      3582      3584
      3580      3579      3582      3585      3581      3579      3582      3583
      3581      3579      3582      3584      3581      3579      3582      3585
      3582      3585      3588      3589      3582      3585      3588      3590
      3582      3585      3588      3591      3583      3582      3585      3586
      3583      3582      3585      3587      3583      3582      3585      3588
      3584      3582      3585      3586      3584      3582      3585      3587
      3584      3582      3585      3588      3585      3588      3591      3592
      3585      3588      3591      3593      3585      3588      3591      3594
      3586      3585      3588      3589      3586      3585      3588      3590
      3586      3585      3588      3591      3587      3585      3588      3589
      3587      3585      3588      3590      3587      3585      3588      3591
      3588      3591      3594      3595      3588      3591      3594      3596
      3588      3591      3594      3597      3589      3588      3591      3592
      3589      3588      3591      3593      3589      3588      3591      3594
      3590      3588      3591      3592      3590      3588      3591      3593
      3590      3588      3591      3594      3591      3594      3597      3598
      3591      3594      3597      3599      3591      3594      3597      3600
      3592      3591      3594      3595      3592      3591      3594      3596
      3592      3591      3594      3597      3593      3591      3594      3595
      3593      3591      3594      3596      3593      3591      3594      3597
      3594      3597      3600      3601      3594      3597      3600      3602
      3594      3597      3600      3603      3595      3594      3597      3598
      3595      3594      3597      3599      3595      3594      3597      3600
      3596      3594      3597      3598      3596      3594      3597      3599
      3596      3594      3597      3600      3597      3600      3603      3604
      3597      3600      3603      3605      3597      3600      3603      3606
      3598      3597      3600      3601      3598      3597      3600      3602
      3598      3597      3600      3603      3599      3597      3600      3601
      3599      3597      3600      3602      3599      3597      3600      3603
      3600      3603      3606      3607      3600      3603      3606      3608
      3600      3603      3606      3609      3601      3600      3603      3604
      3601      3600      3603      3605      3601      3600      3603      3606
      3602      3600      3603      3604      3602      3600      3603      3605
      3602      3600      3603      3606      3603      3606      3609      3610
      3603      3606      3609      3611      3603      3606      3609      3612
      3604      3603      3606      3607      3604      3603      3606      3608
      3604      3603      3606      3609      3605      3603      3606      3607
      3605      3603      3606      3608      3605      3603      3606      3609
      3606      3609      3612      3613      3606      3609      3612      3614
      3606      3609      3612      3615      3607      3606      3609      3610
      3607      3606      3609      3611      3607      3606      3609      3612
      3608      3606      3609      3610      3608      3606      3609      3611
      3608      3606      3609      3612      3609      3612      3615      3616
      3609      3612      3615      3617      3609      3612      3615      3618
      3610      3609      3612      3613      3610      3609      3612      3614
      3610      3609      3612      3615      3611      3609      3612      3613
      3611      3609      3612      3614      3611      3609      3612      3615
      3613      3612      3615      3616      3613      3612      3615      3617
      3613      3612      3615      3618      3614      3612      3615      3616
      3614      3612      3615      3617      3614      3612      3615      3618
      3619      3620      3635      3636      3619      3620      3635      3637
      3619      3620      3635      3641      3620      3619      3623      3624
      3620      3619      3623      3625      3620      3619      3623      3626
      3620      3619      3627      3628      3620      3619      3627      3629
      3620      3619      3627      3630      3620      3619      3631      3632
      3620      3619      3631      3633      3620      3619      3631      3634
      3620      3635      3641      3638      3621      3620      3619      3623
      3621      3620      3619      3627      3621      3620      3619      3631
      3621      3620      3635      3636      3621      3620      3635      3637
      3621      3620      3635      3641      3622      3620      3619      3623
      3622      3620      3619      3627      3622      3620      3619      3631
      3622      3620      3635      3636      3622      3620      3635      3637
      3622      3620      3635      3641      3623      3619      3620      3635
      3623      3619      3627      3628      3623      3619      3627      3629
      3623      3619      3627      3630      3623      3619      3631      3632
      3623      3619      3631      3633      3623      3619      3631      3634
      3624      3623      3619      3627      3624      3623      3619      3631
      3625      3623      3619      3627      3625      3623      3619      3631
      3626      3623      3619      3627      3626      3623      3619      3631
      3627      3619      3620      3635      3627      3619      3631      3632
      3627      3619      3631      3633      3627      3619      3631      3634
      3628      3627      3619      3631      3629      3627      3619      3631
      3630      3627      3619      3631      3631      3619      3620      3635
      3635      3641      3638      3639      3635      3641      3638      3640
      3635      3641      3638      3642      3636      3635      3641      3638
      3637      3635      3641      3638      3638      3642      3643      3644
      3638      3642      3643      3645      3638      3642      3643      3646
      3639      3638      3642      3643      3640      3638      3642      3643
      3641      3638      3642      3643      3642      3643      3646      3647
      3642      3643      3646      3648      3642      3643      3646      3654
      3643      3646      3648      3649      3643      3646      3654      3655
      3643      3646      3654      3656      3643      3646      3654      3657
      3644      3643      3646      3647      3644      3643      3646      3648
      3644      3643      3646      3654      3645      3643      3646      3647
      3645      3643      3646      3648      3645      3643      3646      3654
      3646      3648      3649      3650      3646      3648      3649      3651
      3646      3654      3657      3658      3647      3646      3648      3649
      3647      3646      3654      3655      3647      3646      3654      3656
      3647      3646      3654      3657      3648      3646      3654      3655
      3648      3646      3654      3656      3648      3646      3654      3657
      3648      3649      3651      3652      3648      3649      3651      3653
      3648      3649      3651      3663      3649      3648      3646      3654
      3649      3651      3663      3664      3649      3651      3663      3665
      3649      3651      3663      3666      3650      3649      3651      3652
      3650      3649      3651      3653      3650      3649      3651      3663
      3651      3663      3666      3667      3651      3663      3666      3668
      3651      3663      3666      3669      3652      3651      3663      3664
      3652      3651      3663      3665      3652      3651      3663      3666
      3653      3651      3663      3664      3653      3651      3663      3665
      3653      3651      3663      3666      3654      3657      3658      3659
      3654      3657      3658      3660      3655      3654      3657      3658
      3656      3654      3657      3658      3657      3658      3660      3661
      3657      3658      3660      3662      3657      3658      3660      3710
      3658      3660      3710      3711      3658      3660      3710      3712
      3658      3660      3710      3713      3659      3658      3660      3661
      3659      3658      3660      3662      3659      3658      3660      3710
      3660      3710      3713      3714      3660      3710      3713      3715
      3660      3710      3713      3716      3661      3660      3710      3711
      3661      3660      3710      3712      3661      3660      3710      3713
      3662      3660      3710      3711      3662      3660      3710      3712
      3662      3660      3710      3713      3663      3666      3669      3670
      3663      3666      3669      3671      3663      3666      3669      3672
      3664      3663      3666      3667      3664      3663      3666      3668
      3664      3663      3666      3669      3665      3663      3666      3667
      3665      3663      3666      3668      3665      3663      3666      3669
      3666      3669      3672      3673      3666      3669      3672      3674
      3666      3669      3672      3675      3667      3666      3669      3670
      3667      3666      3669      3671      3667      3666      3669      3672
      3668      3666      3669      3670      3668      3666      3669      3671
      3668      3666      3669      3672      3669      3672      3675      3676
      3669      3672      3675      3677      3669      3672      3675      3678
      3670      3669      3672      3673      3670      3669      3672      3674
      3670      3669      3672      3675      3671      3669      3672      3673
      3671      3669      3672      3674      3671      3669      3672      3675
      3672      3675      3678      3679      3672      3675      3678      3680
      3672      3675      3678      3681      3673      3672      3675      3676
      3673      3672      3675      3677      3673      3672      3675      3678
      3674      3672      3675      3676      3674      3672      3675      3677
      3674      3672      3675      3678      3675      3678      3681      3682
      3675      3678      3681      3683      3676      3675      3678      3679
      3676      3675      3678      3680      3676      3675      3678      3681
      3677      3675      3678      3679      3677      3675      3678      3680
      3677      3675      3678      3681      3678      3681      3683      3684
      3678      3681      3683      3685      3679      3678      3681      3682
      3679      3678      3681      3683      3680      3678      3681      3682
      3680      3678      3681      3683      3681      3683      3685      3686
      3681      3683      3685      3687      3681      3683      3685      3688
      3682      3681      3683      3684      3682      3681      3683      3685
      3683      3685      3688      3689      3683      3685      3688      3690
      3683      3685      3688      3691      3684      3683      3685      3686
      3684      3683      3685      3687      3684      3683      3685      3688
      3685      3688      3691      3692      3685      3688      3691      3693
      3685      3688      3691      3694      3686      3685      3688      3689
      3686      3685      3688      3690      3686      3685      3688      3691
      3687      3685      3688      3689      3687      3685      3688      3690
      3687      3685      3688      3691      3688      3691      3694      3695
      3688      3691      3694      3696      3688      3691      3694      3697
      3689      3688      3691      3692      3689      3688      3691      3693
      3689      3688      3691      3694      3690      3688      3691      3692
      3690      3688      3691      3693      3690      3688      3691      3694
      3691      3694      3697      3698      3691      3694      3697      3699
      3691      3694      3697      3700      3692      3691      3694      3695
      3692      3691      3694      3696      3692      3691      3694      3697
      3693      3691      3694      3695      3693      3691      3694      3696
      3693      3691      3694      3697      3694      3697      3700      3701
      3694      3697      3700      3702      3694      3697      3700      3703
      3695      3694      3697      3698      3695      3694      3697      3699
      3695      3694      3697      3700      3696      3694      3697      3698
      3696      3694      3697      3699      3696      3694      3697      3700
      3697      3700      3703      3704      3697      3700      3703      3705
      3697      3700      3703      3706      3698      3697      3700      3701
      3698      3697      3700      3702      3698      3697      3700      3703
      3699      3697      3700      3701      3699      3697      3700      3702
      3699      3697      3700      3703      3700      3703      3706      3707
      3700      3703      3706      3708      3700      3703      3706      3709
      3701      3700      3703      3704      3701      3700      3703      3705
      3701      3700      3703      3706      3702      3700      3703      3704
      3702      3700      3703      3705      3702      3700      3703      3706
      3704      3703      3706      3707      3704      3703      3706      3708
      3704      3703      3706      3709      3705      3703      3706      3707
      3705      3703      3706      3708      3705      3703      3706      3709
      3710      3713      3716      3717      3710      3713      3716      3718
      3710      3713      3716      3719      3711      3710      3713      3714
      3711      3710      3713      3715      3711      3710      3713      3716
      3712      3710      3713      3714      3712      3710      3713      3715
      3712      3710      3713      3716      3713      3716      3719      3720
      3713      3716      3719      3721      3713      3716      3719      3722
      3714      3713      3716      3717      3714      3713      3716      3718
      3714      3713      3716      3719      3715      3713      3716      3717
      3715      3713      3716      3718      3715      3713      3716      3719
      3716      3719      3722      3723      3716      3719      3722      3724
      3716      3719      3722      3725      3717      3716      3719      3720
      3717      3716      3719      3721      3717      3716      3719      3722
      3718      3716      3719      3720      3718      3716      3719      3721
      3718      3716      3719      3722      3719      3722      3725      3726
      3719      3722      3725      3727      3719      3722      3725      3728
      3720      3719      3722      3723      3720      3719      3722      3724
      3720      3719      3722      3725      3721      3719      3722      3723
      3721      3719      3722      3724      3721      3719      3722      3725
      3722      3725      3728      3729      3722      3725      3728      3730
      3722      3725      3728      3731      3723      3722      3725      3726
      3723      3722      3725      3727      3723      3722      3725      3728
      3724      3722      3725      3726      3724      3722      3725      3727
      3724      3722      3725      3728      3725      3728      3731      3732
      3725      3728      3731      3733      3725      3728      3731      3734
      3726      3725      3728      3729      3726      3725      3728      3730
      3726      3725      3728      3731      3727      3725      3728      3729
      3727      3725      3728      3730      3727      3725      3728      3731
      3728      3731      3734      3735      3728      3731      3734      3736
      3728      3731      3734      3737      3729      3728      3731      3732
      3729      3728      3731      3733      3729      3728      3731      3734
      3730      3728      3731      3732      3730      3728      3731      3733
      3730      3728      3731      3734      3731      3734      3737      3738
      3731      3734      3737      3739      3731      3734      3737      3740
      3732      3731      3734      3735      3732      3731      3734      3736
      3732      3731      3734      3737      3733      3731      3734      3735
      3733      3731      3734      3736      3733      3731      3734      3737
      3734      3737      3740      3741      3734      3737      3740      3742
      3734      3737      3740      3743      3735      3734      3737      3738
      3735      3734      3737      3739      3735      3734      3737      3740
      3736      3734      3737      3738      3736      3734      3737      3739
      3736      3734      3737      3740      3737      3740      3743      3744
      3737      3740      3743      3745      3737      3740      3743      3746
      3738      3737      3740      3741      3738      3737      3740      3742
      3738      3737      3740      3743      3739      3737      3740      3741
      3739      3737      3740      3742      3739      3737      3740      3743
      3740      3743      3746      3747      3740      3743      3746      3748
      3740      3743      3746      3749      3741      3740      3743      3744
      3741      3740      3743      3745      3741      3740      3743      3746
      3742      3740      3743      3744      3742      3740      3743      3745
      3742      3740      3743      3746      3743      3746      3749      3750
      3743      3746      3749      3751      3743      3746      3749      3752
      3744      3743      3746      3747      3744      3743      3746      3748
      3744      3743      3746      3749      3745      3743      3746      3747
      3745      3743      3746      3748      3745      3743      3746      3749
      3747      3746      3749      3750      3747      3746      3749      3751
      3747      3746      3749      3752      3748      3746      3749      3750
      3748      3746      3749      3751      3748      3746      3749      3752
      3753      3754      3769      3770      3753      3754      3769      3771
      3753      3754      3769      3775      3754      3753      3757      3758
      3754      3753      3757      3759      3754      3753      3757      3760
      3754      3753      3761      3762      3754      3753      3761      3763
      3754      3753      3761      3764      3754      3753      3765      3766
      3754      3753      3765      3767      3754      3753      3765      3768
      3754      3769      3775      3772      3755      3754      3753      3757
      3755      3754      3753      3761      3755      3754      3753      3765
      3755      3754      3769      3770      3755      3754      3769      3771
      3755      3754      3769      3775      3756      3754      3753      3757
      3756      3754      3753      3761      3756      3754      3753      3765
      3756      3754      3769      3770      3756      3754      3769      3771
      3756      3754      3769      3775      3757      3753      3754      3769
      3757      3753      3761      3762      3757      3753      3761      3763
      3757      3753      3761      3764      3757      3753      3765      3766
      3757      3753      3765      3767      3757      3753      3765      3768
      3758      3757      3753      3761      3758      3757      3753      3765
      3759      3757      3753      3761      3759      3757      3753      3765
      3760      3757      3753      3761      3760      3757      3753      3765
      3761      3753      3754      3769      3761      3753      3765      3766
      3761      3753      3765      3767      3761      3753      3765      3768
      3762      3761      3753      3765      3763      3761      3753      3765
      3764      3761      3753      3765      3765      3753      3754      3769
      3769      3775      3772      3773      3769      3775      3772      3774
      3769      3775      3772      3776      3770      3769      3775      3772
      3771      3769      3775      3772      3772      3776      3777      3778
      3772      3776      3777      3779      3772      3776      3777      3780
      3773      3772      3776      3777      3774      3772      3776      3777
      3775      3772      3776      3777      3776      3777      3780      3781
      3776      3777      3780      3782      3776      3777      3780      3788
      3777      3780      3782      3783      3777      3780      3788      3789
      3777      3780      3788      3790      3777      3780      3788      3791
      3778      3777      3780      3781      3778      3777      3780      3782
      3778      3777      3780      3788      3779      3777      3780      3781
      3779      3777      3780      3782      3779      3777      3780      3788
      3780      3782      3783      3784      3780      3782      3783      3785
      3780      3788      3791      3792      3781      3780      3782      3783
      3781      3780      3788      3789      3781      3780      3788      3790
      3781      3780      3788      3791      3782      3780      3788      3789
      3782      3780      3788      3790      3782      3780      3788      3791
      3782      3783      3785      3786      3782      3783      3785      3787
      3782      3783      3785      3797      3783      3782      3780      3788
      3783      3785      3797      3798      3783      3785      3797      3799
      3783      3785      3797      3800      3784      3783      3785      3786
      3784      3783      3785      3787      3784      3783      3785      3797
      3785      3797      3800      3801      3785      3797      3800      3802
      3785      3797      3800      3803      3786      3785      3797      3798
      3786      3785      3797      3799      3786      3785      3797      3800
      3787      3785      3797      3798      3787      3785      3797      3799
      3787      3785      3797      3800      3788      3791      3792      3793
      3788      3791      3792      3794      3789      3788      3791      3792
      3790      3788      3791      3792      3791      3792      3794      3795
      3791      3792      3794      3796      3791      3792      3794      3844
      3792      3794      3844      3845      3792      3794      3844      3846
      3792      3794      3844      3847      3793      3792      3794      3795
      3793      3792      3794      3796      3793      3792      3794      3844
      3794      3844      3847      3848      3794      3844      3847      3849
      3794      3844      3847      3850      3795      3794      3844      3845
      3795      3794      3844      3846      3795      3794      3844      3847
      3796      3794      3844      3845      3796      3794      3844      3846
      3796      3794      3844      3847      3797      3800      3803      3804
      3797      3800      3803      3805      3797      3800      3803      3806
      3798      3797      3800      3801      3798      3797      3800      3802
      3798      3797      3800      3803      3799      3797      3800      3801
      3799      3797      3800      3802      3799      3797      3800      3803
      3800      3803      3806      3807      3800      3803      3806      3808
      3800      3803      3806      3809      3801      3800      3803      3804
      3801      3800      3803      3805      3801      3800      3803      3806
      3802      3800      3803      3804      3802      3800      3803      3805
      3802      3800      3803      3806      3803      3806      3809      3810
      3803      3806      3809      3811      3803      3806      3809      3812
      3804      3803      3806      3807      3804      3803      3806      3808
      3804      3803      3806      3809      3805      3803      3806      3807
      3805      3803      3806      3808      3805      3803      3806      3809
      3806      3809      3812      3813      3806      3809      3812      3814
      3806      3809      3812      3815      3807      3806      3809      3810
      3807      3806      3809      3811      3807      3806      3809      3812
      3808      3806      3809      3810      3808      3806      3809      3811
      3808      3806      3809      3812      3809      3812      3815      3816
      3809      3812      3815      3817      3810      3809      3812      3813
      3810      3809      3812      3814      3810      3809      3812      3815
      3811      3809      3812      3813      3811      3809      3812      3814
      3811      3809      3812      3815      3812      3815      3817      3818
      3812      3815      3817      3819      3813      3812      3815      3816
      3813      3812      3815      3817      3814      3812      3815      3816
      3814      3812      3815      3817      3815      3817      3819      3820
      3815      3817      3819      3821      3815      3817      3819      3822
      3816      3815      3817      3818      3816      3815      3817      3819
      3817      3819      3822      3823      3817      3819      3822      3824
      3817      3819      3822      3825      3818      3817      3819      3820
      3818      3817      3819      3821      3818      3817      3819      3822
      3819      3822      3825      3826      3819      3822      3825      3827
      3819      3822      3825      3828      3820      3819      3822      3823
      3820      3819      3822      3824      3820      3819      3822      3825
      3821      3819      3822      3823      3821      3819      3822      3824
      3821      3819      3822      3825      3822      3825      3828      3829
      3822      3825      3828      3830      3822      3825      3828      3831
      3823      3822      3825      3826      3823      3822      3825      3827
      3823      3822      3825      3828      3824      3822      3825      3826
      3824      3822      3825      3827      3824      3822      3825      3828
      3825      3828      3831      3832      3825      3828      3831      3833
      3825      3828      3831      3834      3826      3825      3828      3829
      3826      3825      3828      3830      3826      3825      3828      3831
      3827      3825      3828      3829      3827      3825      3828      3830
      3827      3825      3828      3831      3828      3831      3834      3835
      3828      3831      3834      3836      3828      3831      3834      3837
      3829      3828      3831      3832      3829      3828      3831      3833
      3829      3828      3831      3834      3830      3828      3831      3832
      3830      3828      3831      3833      3830      3828      3831      3834
      3831      3834      3837      3838      3831      3834      3837      3839
      3831      3834      3837      3840      3832      3831      3834      3835
      3832      3831      3834      3836      3832      3831      3834      3837
      3833      3831      3834      3835      3833      3831      3834      3836
      3833      3831      3834      3837      3834      3837      3840      3841
      3834      3837      3840      3842      3834      3837      3840      3843
      3835      3834      3837      3838      3835      3834      3837      3839
      3835      3834      3837      3840      3836      3834      3837      3838
      3836      3834      3837      3839      3836      3834      3837      3840
      3838      3837      3840      3841      3838      3837      3840      3842
      3838      3837      3840      3843      3839      3837      3840      3841
      3839      3837      3840      3842      3839      3837      3840      3843
      3844      3847      3850      3851      3844      3847      3850      3852
      3844      3847      3850      3853      3845      3844      3847      3848
      3845      3844      3847      3849      3845      3844      3847      3850
      3846      3844      3847      3848      3846      3844      3847      3849
      3846      3844      3847      3850      3847      3850      3853      3854
      3847      3850      3853      3855      3847      3850      3853      3856
      3848      3847      3850      3851      3848      3847      3850      3852
      3848      3847      3850      3853      3849      3847      3850      3851
      3849      3847      3850      3852      3849      3847      3850      3853
      3850      3853      3856      3857      3850      3853      3856      3858
      3850      3853      3856      3859      3851      3850      3853      3854
      3851      3850      3853      3855      3851      3850      3853      3856
      3852      3850      3853      3854      3852      3850      3853      3855
      3852      3850      3853      3856      3853      3856      3859      3860
      3853      3856      3859      3861      3853      3856      3859      3862
      3854      3853      3856      3857      3854      3853      3856      3858
      3854      3853      3856      3859      3855      3853      3856      3857
      3855      3853      3856      3858      3855      3853      3856      3859
      3856      3859      3862      3863      3856      3859      3862      3864
      3856      3859      3862      3865      3857      3856      3859      3860
      3857      3856      3859      3861      3857      3856      3859      3862
      3858      3856      3859      3860      3858      3856      3859      3861
      3858      3856      3859      3862      3859      3862      3865      3866
      3859      3862      3865      3867      3859      3862      3865      3868
      3860      3859      3862      3863      3860      3859      3862      3864
      3860      3859      3862      3865      3861      3859      3862      3863
      3861      3859      3862      3864      3861      3859      3862      3865
      3862      3865      3868      3869      3862      3865      3868      3870
      3862      3865      3868      3871      3863      3862      3865      3866
      3863      3862      3865      3867      3863      3862      3865      3868
      3864      3862      3865      3866      3864      3862      3865      3867
      3864      3862      3865      3868      3865      3868      3871      3872
      3865      3868      3871      3873      3865      3868      3871      3874
      3866      3865      3868      3869      3866      3865      3868      3870
      3866      3865      3868      3871      3867      3865      3868      3869
      3867      3865      3868      3870      3867      3865      3868      3871
      3868      3871      3874      3875      3868      3871      3874      3876
      3868      3871      3874      3877      3869      3868      3871      3872
      3869      3868      3871      3873      3869      3868      3871      3874
      3870      3868      3871      3872      3870      3868      3871      3873
      3870      3868      3871      3874      3871      3874      3877      3878
      3871      3874      3877      3879      3871      3874      3877      3880
      3872      3871      3874      3875      3872      3871      3874      3876
      3872      3871      3874      3877      3873      3871      3874      3875
      3873      3871      3874      3876      3873      3871      3874      3877
      3874      3877      3880      3881      3874      3877      3880      3882
      3874      3877      3880      3883      3875      3874      3877      3878
      3875      3874      3877      3879      3875      3874      3877      3880
      3876      3874      3877      3878      3876      3874      3877      3879
      3876      3874      3877      3880      3877      3880      3883      3884
      3877      3880      3883      3885      3877      3880      3883      3886
      3878      3877      3880      3881      3878      3877      3880      3882
      3878      3877      3880      3883      3879      3877      3880      3881
      3879      3877      3880      3882      3879      3877      3880      3883
      3881      3880      3883      3884      3881      3880      3883      3885
      3881      3880      3883      3886      3882      3880      3883      3884
      3882      3880      3883      3885      3882      3880      3883      3886
      3887      3888      3903      3904      3887      3888      3903      3905
      3887      3888      3903      3909      3888      3887      3891      3892
      3888      3887      3891      3893      3888      3887      3891      3894
      3888      3887      3895      3896      3888      3887      3895      3897
      3888      3887      3895      3898      3888      3887      3899      3900
      3888      3887      3899      3901      3888      3887      3899      3902
      3888      3903      3909      3906      3889      3888      3887      3891
      3889      3888      3887      3895      3889      3888      3887      3899
      3889      3888      3903      3904      3889      3888      3903      3905
      3889      3888      3903      3909      3890      3888      3887      3891
      3890      3888      3887      3895      3890      3888      3887      3899
      3890      3888      3903      3904      3890      3888      3903      3905
      3890      3888      3903      3909      3891      3887      3888      3903
      3891      3887      3895      3896      3891      3887      3895      3897
      3891      3887      3895      3898      3891      3887      3899      3900
      3891      3887      3899      3901      3891      3887      3899      3902
      3892      3891      3887      3895      3892      3891      3887      3899
      3893      3891      3887      3895      3893      3891      3887      3899
      3894      3891      3887      3895      3894      3891      3887      3899
      3895      3887      3888      3903      3895      3887      3899      3900
      3895      3887      3899      3901      3895      3887      3899      3902
      3896      3895      3887      3899      3897      3895      3887      3899
      3898      3895      3887      3899      3899      3887      3888      3903
      3903      3909      3906      3907      3903      3909      3906      3908
      3903      3909      3906      3910      3904      3903      3909      3906
      3905      3903      3909      3906      3906      3910      3911      3912
      3906      3910      3911      3913      3906      3910      3911      3914
      3907      3906      3910      3911      3908      3906      3910      3911
      3909      3906      3910      3911      3910      3911      3914      3915
      3910      3911      3914      3916      3910      3911      3914      3922
      3911      3914      3916      3917      3911      3914      3922      3923
      3911      3914      3922      3924      3911      3914      3922      3925
      3912      3911      3914      3915      3912      3911      3914      3916
      3912      3911      3914      3922      3913      3911      3914      3915
      3913      3911      3914      3916      3913      3911      3914      3922
      3914      3916      3917      3918      3914      3916      3917      3919
      3914      3922      3925      3926      3915      3914      3916      3917
      3915      3914      3922      3923      3915      3914      3922      3924
      3915      3914      3922      3925      3916      3914      3922      3923
      3916      3914      3922      3924      3916      3914      3922      3925
      3916      3917      3919      3920      3916      3917      3919      3921
      3916      3917      3919      3931      3917      3916      3914      3922
      3917      3919      3931      3932      3917      3919      3931      3933
      3917      3919      3931      3934      3918      3917      3919      3920
      3918      3917      3919      3921      3918      3917      3919      3931
      3919      3931      3934      3935      3919      3931      3934      3936
      3919      3931      3934      3937      3920      3919      3931      3932
      3920      3919      3931      3933      3920      3919      3931      3934
      3921      3919      3931      3932      3921      3919      3931      3933
      3921      3919      3931      3934      3922      3925      3926      3927
      3922      3925      3926      3928      3923      3922      3925      3926
      3924      3922      3925      3926      3925      3926      3928      3929
      3925      3926      3928      3930      3925      3926      3928      3978
      3926      3928      3978      3979      3926      3928      3978      3980
      3926      3928      3978      3981      3927      3926      3928      3929
      3927      3926      3928      3930      3927      3926      3928      3978
      3928      3978      3981      3982      3928      3978      3981      3983
      3928      3978      3981      3984      3929      3928      3978      3979
      3929      3928      3978      3980      3929      3928      3978      3981
      3930      3928      3978      3979      3930      3928      3978      3980
      3930      3928      3978      3981      3931      3934      3937      3938
      3931      3934      3937      3939      3931      3934      3937      3940
      3932      3931      3934      3935      3932      3931      3934      3936
      3932      3931      3934      3937      3933      3931      3934      3935
      3933      3931      3934      3936      3933      3931      3934      3937
      3934      3937      3940      3941      3934      3937      3940      3942
      3934      3937      3940      3943      3935      3934      3937      3938
      3935      3934      3937      3939      3935      3934      3937      3940
      3936      3934      3937      3938      3936      3934      3937      3939
      3936      3934      3937      3940      3937      3940      3943      3944
      3937      3940      3943      3945      3937      3940      3943      3946
      3938      3937      3940      3941      3938      3937      3940      3942
      3938      3937      3940      3943      3939      3937      3940      3941
      3939      3937      3940      3942      3939      3937      3940      3943
      3940      3943      3946      3947      3940      3943      3946      3948
      3940      3943      3946      3949      3941      3940      3943      3944
      3941      3940      3943      3945      3941      3940      3943      3946
      3942      3940      3943      3944      3942      3940      3943      3945
      3942      3940      3943      3946      3943      3946      3949      3950
      3943      3946      3949      3951      3944      3943      3946      3947
      3944      3943      3946      3948      3944      3943      3946      3949
      3945      3943      3946      3947      3945      3943      3946      3948
      3945      3943      3946      3949      3946      3949      3951      3952
      3946      3949      3951      3953      3947      3946      3949      3950
      3947      3946      3949      3951      3948      3946      3949      3950
      3948      3946      3949      3951      3949      3951      3953      3954
      3949      3951      3953      3955      3949      3951      3953      3956
      3950      3949      3951      3952      3950      3949      3951      3953
      3951      3953      3956      3957      3951      3953      3956      3958
      3951      3953      3956      3959      3952      3951      3953      3954
      3952      3951      3953      3955      3952      3951      3953      3956
      3953      3956      3959      3960      3953      3956      3959      3961
      3953      3956      3959      3962      3954      3953      3956      3957
      3954      3953      3956      3958      3954      3953      3956      3959
      3955      3953      3956      3957      3955      3953      3956      3958
      3955      3953      3956      3959      3956      3959      3962      3963
      3956      3959      3962      3964      3956      3959      3962      3965
      3957      3956      3959      3960      3957      3956      3959      3961
      3957      3956      3959      3962      3958      3956      3959      3960
      3958      3956      3959      3961      3958      3956      3959      3962
      3959      3962      3965      3966      3959      3962      3965      3967
      3959      3962      3965      3968      3960      3959      3962      3963
      3960      3959      3962      3964      3960      3959      3962      3965
      3961      3959      3962      3963      3961      3959      3962      3964
      3961      3959      3962      3965      3962      3965      3968      3969
      3962      3965      3968      3970      3962      3965      3968      3971
      3963      3962      3965      3966      3963      3962      3965      3967
      3963      3962      3965      3968      3964      3962      3965      3966
      3964      3962      3965      3967      3964      3962      3965      3968
      3965      3968      3971      3972      3965      3968      3971      3973
      3965      3968      3971      3974      3966      3965      3968      3969
      3966      3965      3968      3970      3966      3965      3968      3971
      3967      3965      3968      3969      3967      3965      3968      3970
      3967      3965      3968      3971      3968      3971      3974      3975
      3968      3971      3974      3976      3968      3971      3974      3977
      3969      3968      3971      3972      3969      3968      3971      3973
      3969      3968      3971      3974      3970      3968      3971      3972
      3970      3968      3971      3973      3970      3968      3971      3974
      3972      3971      3974      3975      3972      3971      3974      3976
      3972      3971      3974      3977      3973      3971      3974      3975
      3973      3971      3974      3976      3973      3971      3974      3977
      3978      3981      3984      3985      3978      3981      3984      3986
      3978      3981      3984      3987      3979      3978      3981      3982
      3979      3978      3981      3983      3979      3978      3981      3984
      3980      3978      3981      3982      3980      3978      3981      3983
      3980      3978      3981      3984      3981      3984      3987      3988
      3981      3984      3987      3989      3981      3984      3987      3990
      3982      3981      3984      3985      3982      3981      3984      3986
      3982      3981      3984      3987      3983      3981      3984      3985
      3983      3981      3984      3986      3983      3981      3984      3987
      3984      3987      3990      3991      3984      3987      3990      3992
      3984      3987      3990      3993      3985      3984      3987      3988
      3985      3984      3987      3989      3985      3984      3987      3990
      3986      3984      3987      3988      3986      3984      3987      3989
      3986      3984      3987      3990      3987      3990      3993      3994
      3987      3990      3993      3995      3987      3990      3993      3996
      3988      3987      3990      3991      3988      3987      3990      3992
      3988      3987      3990      3993      3989      3987      3990      3991
      3989      3987      3990      3992      3989      3987      3990      3993
      3990      3993      3996      3997      3990      3993      3996      3998
      3990      3993      3996      3999      3991      3990      3993      3994
      3991      3990      3993      3995      3991      3990      3993      3996
      3992      3990      3993      3994      3992      3990      3993      3995
      3992      3990      3993      3996      3993      3996      3999      4000
      3993      3996      3999      4001      3993      3996      3999      4002
      3994      3993      3996      3997      3994      3993      3996      3998
      3994      3993      3996      3999      3995      3993      3996      3997
      3995      3993      3996      3998      3995      3993      3996      3999
      3996      3999      4002      4003      3996      3999      4002      4004
      3996      3999      4002      4005      3997      3996      3999      4000
      3997      3996      3999      4001      3997      3996      3999      4002
      3998      3996      3999      4000      3998      3996      3999      4001
      3998      3996      3999      4002      3999      4002      4005      4006
      3999      4002      4005      4007      3999      4002      4005      4008
      4000      3999      4002      4003      4000      3999      4002      4004
      4000      3999      4002      4005      4001      3999      4002      4003
      4001      3999      4002      4004      4001      3999      4002      4005
      4002      4005      4008      4009      4002      4005      4008      4010
      4002      4005      4008      4011      4003      4002      4005      4006
      4003      4002      4005      4007      4003      4002      4005      4008
      4004      4002      4005      4006      4004      4002      4005      4007
      4004      4002      4005      4008      4005      4008      4011      4012
      4005      4008      4011      4013      4005      4008      4011      4014
      4006      4005      4008      4009      4006      4005      4008      4010
      4006      4005      4008      4011      4007      4005      4008      4009
      4007      4005      4008      4010      4007      4005      4008      4011
      4008      4011      4014      4015      4008      4011      4014      4016
      4008      4011      4014      4017      4009      4008      4011      4012
      4009      4008      4011      4013      4009      4008      4011      4014
      4010      4008      4011      4012      4010      4008      4011      4013
      4010      4008      4011      4014      4011      4014      4017      4018
      4011      4014      4017      4019      4011      4014      4017      4020
      4012      4011      4014      4015      4012      4011      4014      4016
      4012      4011      4014      4017      4013      4011      4014      4015
      4013      4011      4014      4016      4013      4011      4014      4017
      4015      4014      4017      4018      4015      4014      4017      4019
      4015      4014      4017      4020      4016      4014      4017      4018
      4016      4014      4017      4019      4016      4014      4017      4020
      4021      4022      4037      4038      4021      4022      4037      4039
      4021      4022      4037      4043      4022      4021      4025      4026
      4022      4021      4025      4027      4022      4021      4025      4028
      4022      4021      4029      4030      4022      4021      4029      4031
      4022      4021      4029      4032      4022      4021      4033      4034
      4022      4021      4033      4035      4022      4021      4033      4036
      4022      4037      4043      4040      4023      4022      4021      4025
      4023      4022      4021      4029      4023      4022      4021      4033
      4023      4022      4037      4038      4023      4022      4037      4039
      4023      4022      4037      4043      4024      4022      4021      4025
      4024      4022      4021      4029      4024      4022      4021      4033
      4024      4022      4037      4038      4024      4022      4037      4039
      4024      4022      4037      4043      4025      4021      4022      4037
      4025      4021      4029      4030      4025      4021      4029      4031
      4025      4021      4029      4032      4025      4021      4033      4034
      4025      4021      4033      4035      4025      4021      4033      4036
      4026      4025      4021      4029      4026      4025      4021      4033
      4027      4025      4021      4029      4027      4025      4021      4033
      4028      4025      4021      4029      4028      4025      4021      4033
      4029      4021      4022      4037      4029      4021      4033      4034
      4029      4021      4033      4035      4029      4021      4033      4036
      4030      4029      4021      4033      4031      4029      4021      4033
      4032      4029      4021      4033      4033      4021      4022      4037
      4037      4043      4040      4041      4037      4043      4040      4042
      4037      4043      4040      4044      4038      4037      4043      4040
      4039      4037      4043      4040      4040      4044      4045      4046
      4040      4044      4045      4047      4040      4044      4045      4048
      4041      4040      4044      4045      4042      4040      4044      4045
      4043      4040      4044      4045      4044      4045      4048      4049
      4044      4045      4048      4050      4044      4045      4048      4056
      4045      4048      4050      4051      4045      4048      4056      4057
      4045      4048      4056      4058      4045      4048      4056      4059
      4046      4045      4048      4049      4046      4045      4048      4050
      4046      4045      4048      4056      4047      4045      4048      4049
      4047      4045      4048      4050      4047      4045      4048      4056
      4048      4050      4051      4052      4048      4050      4051      4053
      4048      4056      4059      4060      4049      4048      4050      4051
      4049      4048      4056      4057      4049      4048      4056      4058
      4049      4048      4056      4059      4050      4048      4056      4057
      4050      4048      4056      4058      4050      4048      4056      4059
      4050      4051      4053      4054      4050      4051      4053      4055
      4050      4051      4053      4065      4051      4050      4048      4056
      4051      4053      4065      4066      4051      4053      4065      4067
      4051      4053      4065      4068      4052      4051      4053      4054
      4052      4051      4053      4055      4052      4051      4053      4065
      4053      4065      4068      4069      4053      4065      4068      4070
      4053      4065      4068      4071      4054      4053      4065      4066
      4054      4053      4065      4067      4054      4053      4065      4068
      4055      4053      4065      4066      4055      4053      4065      4067
      4055      4053      4065      4068      4056      4059      4060      4061
      4056      4059      4060      4062      4057      4056      4059      4060
      4058      4056      4059      4060      4059      4060      4062      4063
      4059      4060      4062      4064      4059      4060      4062      4112
      4060      4062      4112      4113      4060      4062      4112      4114
      4060      4062      4112      4115      4061      4060      4062      4063
      4061      4060      4062      4064      4061      4060      4062      4112
      4062      4112      4115      4116      4062      4112      4115      4117
      4062      4112      4115      4118      4063      4062      4112      4113
      4063      4062      4112      4114      4063      4062      4112      4115
      4064      4062      4112      4113      4064      4062      4112      4114
      4064      4062      4112      4115      4065      4068      4071      4072
      4065      4068      4071      4073      4065      4068      4071      4074
      4066      4065      4068      4069      4066      4065      4068      4070
      4066      4065      4068      4071      4067      4065      4068      4069
      4067      4065      4068      4070      4067      4065      4068      4071
      4068      4071      4074      4075      4068      4071      4074      4076
      4068      4071      4074      4077      4069      4068      4071      4072
      4069      4068      4071      4073      4069      4068      4071      4074
      4070      4068      4071      4072      4070      4068      4071      4073
      4070      4068      4071      4074      4071      4074      4077      4078
      4071      4074      4077      4079      4071      4074      4077      4080
      4072      4071      4074      4075      4072      4071      4074      4076
      4072      4071      4074      4077      4073      4071      4074      4075
      4073      4071      4074      4076      4073      4071      4074      4077
      4074      4077      4080      4081      4074      4077      4080      4082
      4074      4077      4080      4083      4075      4074      4077      4078
      4075      4074      4077      4079      4075      4074      4077      4080
      4076      4074      4077      4078      4076      4074      4077      4079
      4076      4074      4077      4080      4077      4080      4083      4084
      4077      4080      4083      4085      4078      4077      4080      4081
      4078      4077      4080      4082      4078      4077      4080      4083
      4079      4077      4080      4081      4079      4077      4080      4082
      4079      4077      4080      4083      4080      4083      4085      4086
      4080      4083      4085      4087      4081      4080      4083      4084
      4081      4080      4083      4085      4082      4080      4083      4084
      4082      4080      4083      4085      4083      4085      4087      4088
      4083      4085      4087      4089      4083      4085      4087      4090
      4084      4083      4085      4086      4084      4083      4085      4087
      4085      4087      4090      4091      4085      4087      4090      4092
      4085      4087      4090      4093      4086      4085      4087      4088
      4086      4085      4087      4089      4086      4085      4087      4090
      4087      4090      4093      4094      4087      4090      4093      4095
      4087      4090      4093      4096      4088      4087      4090      4091
      4088      4087      4090      4092      4088      4087      4090      4093
      4089      4087      4090      4091      4089      4087      4090      4092
      4089      4087      4090      4093      4090      4093      4096      4097
      4090      4093      4096      4098      4090      4093      4096      4099
      4091      4090      4093      4094      4091      4090      4093      4095
      4091      4090      4093      4096      4092      4090      4093      4094
      4092      4090      4093      4095      4092      4090      4093      4096
      4093      4096      4099      4100      4093      4096      4099      4101
      4093      4096      4099      4102      4094      4093      4096      4097
      4094      4093      4096      4098      4094      4093      4096      4099
      4095      4093      4096      4097      4095      4093      4096      4098
      4095      4093      4096      4099      4096      4099      4102      4103
      4096      4099      4102      4104      4096      4099      4102      4105
      4097      4096      4099      4100      4097      4096      4099      4101
      4097      4096      4099      4102      4098      4096      4099      4100
      4098      4096      4099      4101      4098      4096      4099      4102
      4099      4102      4105      4106      4099      4102      4105      4107
      4099      4102      4105      4108      4100      4099      4102      4103
      4100      4099      4102      4104      4100      4099      4102      4105
      4101      4099      4102      4103      4101      4099      4102      4104
      4101      4099      4102      4105      4102      4105      4108      4109
      4102      4105      4108      4110      4102      4105      4108      4111
      4103      4102      4105      4106      4103      4102      4105      4107
      4103      4102      4105      4108      4104      4102      4105      4106
      4104      4102      4105      4107      4104      4102      4105      4108
      4106      4105      4108      4109      4106      4105      4108      4110
      4106      4105      4108      4111      4107      4105      4108      4109
      4107      4105      4108      4110      4107      4105      4108      4111
      4112      4115      4118      4119      4112      4115      4118      4120
      4112      4115      4118      4121      4113      4112      4115      4116
      4113      4112      4115      4117      4113      4112      4115      4118
      4114      4112      4115      4116      4114      4112      4115      4117
      4114      4112      4115      4118      4115      4118      4121      4122
      4115      4118      4121      4123      4115      4118      4121      4124
      4116      4115      4118      4119      4116      4115      4118      4120
      4116      4115      4118      4121      4117      4115      4118      4119
      4117      4115      4118      4120      4117      4115      4118      4121
      4118      4121      4124      4125      4118      4121      4124      4126
      4118      4121      4124      4127      4119      4118      4121      4122
      4119      4118      4121      4123      4119      4118      4121      4124
      4120      4118      4121      4122      4120      4118      4121      4123
      4120      4118      4121      4124      4121      4124      4127      4128
      4121      4124      4127      4129      4121      4124      4127      4130
      4122      4121      4124      4125      4122      4121      4124      4126
      4122      4121      4124      4127      4123      4121      4124      4125
      4123      4121      4124      4126      4123      4121      4124      4127
      4124      4127      4130      4131      4124      4127      4130      4132
      4124      4127      4130      4133      4125      4124      4127      4128
      4125      4124      4127      4129      4125      4124      4127      4130
      4126      4124      4127      4128      4126      4124      4127      4129
      4126      4124      4127      4130      4127      4130      4133      4134
      4127      4130      4133      4135      4127      4130      4133      4136
      4128      4127      4130      4131      4128      4127      4130      4132
      4128      4127      4130      4133      4129      4127      4130      4131
      4129      4127      4130      4132      4129      4127      4130      4133
      4130      4133      4136      4137      4130      4133      4136      4138
      4130      4133      4136      4139      4131      4130      4133      4134
      4131      4130      4133      4135      4131      4130      4133      4136
      4132      4130      4133      4134      4132      4130      4133      4135
      4132      4130      4133      4136      4133      4136      4139      4140
      4133      4136      4139      4141      4133      4136      4139      4142
      4134      4133      4136      4137      4134      4133      4136      4138
      4134      4133      4136      4139      4135      4133      4136      4137
      4135      4133      4136      4138      4135      4133      4136      4139
      4136      4139      4142      4143      4136      4139      4142      4144
      4136      4139      4142      4145      4137      4136      4139      4140
      4137      4136      4139      4141      4137      4136      4139      4142
      4138      4136      4139      4140      4138      4136      4139      4141
      4138      4136      4139      4142      4139      4142      4145      4146
      4139      4142      4145      4147      4139      4142      4145      4148
      4140      4139      4142      4143      4140      4139      4142      4144
      4140      4139      4142      4145      4141      4139      4142      4143
      4141      4139      4142      4144      4141      4139      4142      4145
      4142      4145      4148      4149      4142      4145      4148      4150
      4142      4145      4148      4151      4143      4142      4145      4146
      4143      4142      4145      4147      4143      4142      4145      4148
      4144      4142      4145      4146      4144      4142      4145      4147
      4144      4142      4145      4148      4145      4148      4151      4152
      4145      4148      4151      4153      4145      4148      4151      4154
      4146      4145      4148      4149      4146      4145      4148      4150
      4146      4145      4148      4151      4147      4145      4148      4149
      4147      4145      4148      4150      4147      4145      4148      4151
      4149      4148      4151      4152      4149      4148      4151      4153
      4149      4148      4151      4154      4150      4148      4151      4152
      4150      4148      4151      4153      4150      4148      4151      4154
      4155      4156      4171      4172      4155      4156      4171      4173
      4155      4156      4171      4177      4156      4155      4159      4160
      4156      4155      4159      4161      4156      4155      4159      4162
      4156      4155      4163      4164      4156      4155      4163      4165
      4156      4155      4163      4166      4156      4155      4167      4168
      4156      4155      4167      4169      4156      4155      4167      4170
      4156      4171      4177      4174      4157      4156      4155      4159
      4157      4156      4155      4163      4157      4156      4155      4167
      4157      4156      4171      4172      4157      4156      4171      4173
      4157      4156      4171      4177      4158      4156      4155      4159
      4158      4156      4155      4163      4158      4156      4155      4167
      4158      4156      4171      4172      4158      4156      4171      4173
      4158      4156      4171      4177      4159      4155      4156      4171
      4159      4155      4163      4164      4159      4155      4163      4165
      4159      4155      4163      4166      4159      4155      4167      4168
      4159      4155      4167      4169      4159      4155      4167      4170
      4160      4159      4155      4163      4160      4159      4155      4167
      4161      4159      4155      4163      4161      4159      4155      4167
      4162      4159      4155      4163      4162      4159      4155      4167
      4163      4155      4156      4171      4163      4155      4167      4168
      4163      4155      4167      4169      4163      4155      4167      4170
      4164      4163      4155      4167      4165      4163      4155      4167
      4166      4163      4155      4167      4167      4155      4156      4171
      4171      4177      4174      4175      4171      4177      4174      4176
      4171      4177      4174      4178      4172      4171      4177      4174
      4173      4171      4177      4174      4174      4178      4179      4180
      4174      4178      4179      4181      4174      4178      4179      4182
      4175      4174      4178      4179      4176      4174      4178      4179
      4177      4174      4178      4179      4178      4179      4182      4183
      4178      4179      4182      4184      4178      4179      4182      4190
      4179      4182      4184      4185      4179      4182      4190      4191
      4179      4182      4190      4192      4179      4182      4190      4193
      4180      4179      4182      4183      4180      4179      4182      4184
      4180      4179      4182      4190      4181      4179      4182      4183
      4181      4179      4182      4184      4181      4179      4182      4190
      4182      4184      4185      4186      4182      4184      4185      4187
      4182      4190      4193      4194      4183      4182      4184      4185
      4183      4182      4190      4191      4183      4182      4190      4192
      4183      4182      4190      4193      4184      4182      4190      4191
      4184      4182      4190      4192      4184      4182      4190      4193
      4184      4185      4187      4188      4184      4185      4187      4189
      4184      4185      4187      4199      4185      4184      4182      4190
      4185      4187      4199      4200      4185      4187      4199      4201
      4185      4187      4199      4202      4186      4185      4187      4188
      4186      4185      4187      4189      4186      4185      4187      4199
      4187      4199      4202      4203      4187      4199      4202      4204
      4187      4199      4202      4205      4188      4187      4199      4200
      4188      4187      4199      4201      4188      4187      4199      4202
      4189      4187      4199      4200      4189      4187      4199      4201
      4189      4187      4199      4202      4190      4193      4194      4195
      4190      4193      4194      4196      4191      4190      4193      4194
      4192      4190      4193      4194      4193      4194      4196      4197
      4193      4194      4196      4198      4193      4194      4196      4246
      4194      4196      4246      4247      4194      4196      4246      4248
      4194      4196      4246      4249      4195      4194      4196      4197
      4195      4194      4196      4198      4195      4194      4196      4246
      4196      4246      4249      4250      4196      4246      4249      4251
      4196      4246      4249      4252      4197      4196      4246      4247
      4197      4196      4246      4248      4197      4196      4246      4249
      4198      4196      4246      4247      4198      4196      4246      4248
      4198      4196      4246      4249      4199      4202      4205      4206
      4199      4202      4205      4207      4199      4202      4205      4208
      4200      4199      4202      4203      4200      4199      4202      4204
      4200      4199      4202      4205      4201      4199      4202      4203
      4201      4199      4202      4204      4201      4199      4202      4205
      4202      4205      4208      4209      4202      4205      4208      4210
      4202      4205      4208      4211      4203      4202      4205      4206
      4203      4202      4205      4207      4203      4202      4205      4208
      4204      4202      4205      4206      4204      4202      4205      4207
      4204      4202      4205      4208      4205      4208      4211      4212
      4205      4208      4211      4213      4205      4208      4211      4214
      4206      4205      4208      4209      4206      4205      4208      4210
      4206      4205      4208      4211      4207      4205      4208      4209
      4207      4205      4208      4210      4207      4205      4208      4211
      4208      4211      4214      4215      4208      4211      4214      4216
      4208      4211      4214      4217      4209      4208      4211      4212
      4209      4208      4211      4213      4209      4208      4211      4214
      4210      4208      4211      4212      4210      4208      4211      4213
      4210      4208      4211      4214      4211      4214      4217      4218
      4211      4214      4217      4219      4212      4211      4214      4215
      4212      4211      4214      4216      4212      4211      4214      4217
      4213      4211      4214      4215      4213      4211      4214      4216
      4213      4211      4214      4217      4214      4217      4219      4220
      4214      4217      4219      4221      4215      4214      4217      4218
      4215      4214      4217      4219      4216      4214      4217      4218
      4216      4214      4217      4219      4217      4219      4221      4222
      4217      4219      4221      4223      4217      4219      4221      4224
      4218      4217      4219      4220      4218      4217      4219      4221
      4219      4221      4224      4225      4219      4221      4224      4226
      4219      4221      4224      4227      4220      4219      4221      4222
      4220      4219      4221      4223      4220      4219      4221      4224
      4221      4224      4227      4228      4221      4224      4227      4229
      4221      4224      4227      4230      4222      4221      4224      4225
      4222      4221      4224      4226      4222      4221      4224      4227
      4223      4221      4224      4225      4223      4221      4224      4226
      4223      4221      4224      4227      4224      4227      4230      4231
      4224      4227      4230      4232      4224      4227      4230      4233
      4225      4224      4227      4228      4225      4224      4227      4229
      4225      4224      4227      4230      4226      4224      4227      4228
      4226      4224      4227      4229      4226      4224      4227      4230
      4227      4230      4233      4234      4227      4230      4233      4235
      4227      4230      4233      4236      4228      4227      4230      4231
      4228      4227      4230      4232      4228      4227      4230      4233
      4229      4227      4230      4231      4229      4227      4230      4232
      4229      4227      4230      4233      4230      4233      4236      4237
      4230      4233      4236      4238      4230      4233      4236      4239
      4231      4230      4233      4234      4231      4230      4233      4235
      4231      4230      4233      4236      4232      4230      4233      4234
      4232      4230      4233      4235      4232      4230      4233      4236
      4233      4236      4239      4240      4233      4236      4239      4241
      4233      4236      4239      4242      4234      4233      4236      4237
      4234      4233      4236      4238      4234      4233      4236      4239
      4235      4233      4236      4237      4235      4233      4236      4238
      4235      4233      4236      4239      4236      4239      4242      4243
      4236      4239      4242      4244      4236      4239      4242      4245
      4237      4236      4239      4240      4237      4236      4239      4241
      4237      4236      4239      4242      4238      4236      4239      4240
      4238      4236      4239      4241      4238      4236      4239      4242
      4240      4239      4242      4243      4240      4239      4242      4244
      4240      4239      4242      4245      4241      4239      4242      4243
      4241      4239      4242      4244      4241      4239      4242      4245
      4246      4249      4252      4253      4246      4249      4252      4254
      4246      4249      4252      4255      4247      4246      4249      4250
      4247      4246      4249      4251      4247      4246      4249      4252
      4248      4246      4249      4250      4248      4246      4249      4251
      4248      4246      4249      4252      4249      4252      4255      4256
      4249      4252      4255      4257      4249      4252      4255      4258
      4250      4249      4252      4253      4250      4249      4252      4254
      4250      4249      4252      4255      4251      4249      4252      4253
      4251      4249      4252      4254      4251      4249      4252      4255
      4252      4255      4258      4259      4252      4255      4258      4260
      4252      4255      4258      4261      4253      4252      4255      4256
      4253      4252      4255      4257      4253      4252      4255      4258
      4254      4252      4255      4256      4254      4252      4255      4257
      4254      4252      4255      4258      4255      4258      4261      4262
      4255      4258      4261      4263      4255      4258      4261      4264
      4256      4255      4258      4259      4256      4255      4258      4260
      4256      4255      4258      4261      4257      4255      4258      4259
      4257      4255      4258      4260      4257      4255      4258      4261
      4258      4261      4264      4265      4258      4261      4264      4266
      4258      4261      4264      4267      4259      4258      4261      4262
      4259      4258      4261      4263      4259      4258      4261      4264
      4260      4258      4261      4262      4260      4258      4261      4263
      4260      4258      4261      4264      4261      4264      4267      4268
      4261      4264      4267      4269      4261      4264      4267      4270
      4262      4261      4264      4265      4262      4261      4264      4266
      4262      4261      4264      4267      4263      4261      4264      4265
      4263      4261      4264      4266      4263      4261      4264      4267
      4264      4267      4270      4271      4264      4267      4270      4272
      4264      4267      4270      4273      4265      4264      4267      4268
      4265      4264      4267      4269      4265      4264      4267      4270
      4266      4264      4267      4268      4266      4264      4267      4269
      4266      4264      4267      4270      4267      4270      4273      4274
      4267      4270      4273      4275      4267      4270      4273      4276
      4268      4267      4270      4271      4268      4267      4270      4272
      4268      4267      4270      4273      4269      4267      4270      4271
      4269      4267      4270      4272      4269      4267      4270      4273
      4270      4273      4276      4277      4270      4273      4276      4278
      4270      4273      4276      4279      4271      4270      4273      4274
      4271      4270      4273      4275      4271      4270      4273      4276
      4272      4270      4273      4274      4272      4270      4273      4275
      4272      4270      4273      4276      4273      4276      4279      4280
      4273      4276      4279      4281      4273      4276      4279      4282
      4274      4273      4276      4277      4274      4273      4276      4278
      4274      4273      4276      4279      4275      4273      4276      4277
      4275      4273      4276      4278      4275      4273      4276      4279
      4276      4279      4282      4283      4276      4279      4282      4284
      4276      4279      4282      4285      4277      4276      4279      4280
      4277      4276      4279      4281      4277      4276      4279      4282
      4278      4276      4279      4280      4278      4276      4279      4281
      4278      4276      4279      4282      4279      4282      4285      4286
      4279      4282      4285      4287      4279      4282      4285      4288
      4280      4279      4282      4283      4280      4279      4282      4284
      4280      4279      4282      4285      4281      4279      4282      4283
      4281      4279      4282      4284      4281      4279      4282      4285
      4283      4282      4285      4286      4283      4282      4285      4287
      4283      4282      4285      4288      4284      4282      4285      4286
      4284      4282      4285      4287      4284      4282      4285      4288
      4289      4290      4305      4306      4289      4290      4305      4307
      4289      4290      4305      4311      4290      4289      4293      4294
      4290      4289      4293      4295      4290      4289      4293      4296
      4290      4289      4297      4298      4290      4289      4297      4299
      4290      4289      4297      4300      4290      4289      4301      4302
      4290      4289      4301      4303      4290      4289      4301      4304
      4290      4305      4311      4308      4291      4290      4289      4293
      4291      4290      4289      4297      4291      4290      4289      4301
      4291      4290      4305      4306      4291      4290      4305      4307
      4291      4290      4305      4311      4292      4290      4289      4293
      4292      4290      4289      4297      4292      4290      4289      4301
      4292      4290      4305      4306      4292      4290      4305      4307
      4292      4290      4305      4311      4293      4289      4290      4305
      4293      4289      4297      4298      4293      4289      4297      4299
      4293      4289      4297      4300      4293      4289      4301      4302
      4293      4289      4301      4303      4293      4289      4301      4304
      4294      4293      4289      4297      4294      4293      4289      4301
      4295      4293      4289      4297      4295      4293      4289      4301
      4296      4293      4289      4297      4296      4293      4289      4301
      4297      4289      4290      4305      4297      4289      4301      4302
      4297      4289      4301      4303      4297      4289      4301      4304
      4298      4297      4289      4301      4299      4297      4289      4301
      4300      4297      4289      4301      4301      4289      4290      4305
      4305      4311      4308      4309      4305      4311      4308      4310
      4305      4311      4308      4312      4306      4305      4311      4308
      4307      4305      4311      4308      4308      4312      4313      4314
      4308      4312      4313      4315      4308      4312      4313      4316
      4309      4308      4312      4313      4310      4308      4312      4313
      4311      4308      4312      4313      4312      4313      4316      4317
      4312      4313      4316      4318      4312      4313      4316      4324
      4313      4316      4318      4319      4313      4316      4324      4325
      4313      4316      4324      4326      4313      4316      4324      4327
      4314      4313      4316      4317      4314      4313      4316      4318
      4314      4313      4316      4324      4315      4313      4316      4317
      4315      4313      4316      4318      4315      4313      4316      4324
      4316      4318      4319      4320      4316      4318      4319      4321
      4316      4324      4327      4328      4317      4316      4318      4319
      4317      4316      4324      4325      4317      4316      4324      4326
      4317      4316      4324      4327      4318      4316      4324      4325
      4318      4316      4324      4326      4318      4316      4324      4327
      4318      4319      4321      4322      4318      4319      4321      4323
      4318      4319      4321      4333      4319      4318      4316      4324
      4319      4321      4333      4334      4319      4321      4333      4335
      4319      4321      4333      4336      4320      4319      4321      4322
      4320      4319      4321      4323      4320      4319      4321      4333
      4321      4333      4336      4337      4321      4333      4336      4338
      4321      4333      4336      4339      4322      4321      4333      4334
      4322      4321      4333      4335      4322      4321      4333      4336
      4323      4321      4333      4334      4323      4321      4333      4335
      4323      4321      4333      4336      4324      4327      4328      4329
      4324      4327      4328      4330      4325      4324      4327      4328
      4326      4324      4327      4328      4327      4328      4330      4331
      4327      4328      4330      4332      4327      4328      4330      4380
      4328      4330      4380      4381      4328      4330      4380      4382
      4328      4330      4380      4383      4329      4328      4330      4331
      4329      4328      4330      4332      4329      4328      4330      4380
      4330      4380      4383      4384      4330      4380      4383      4385
      4330      4380      4383      4386      4331      4330      4380      4381
      4331      4330      4380      4382      4331      4330      4380      4383
      4332      4330      4380      4381      4332      4330      4380      4382
      4332      4330      4380      4383      4333      4336      4339      4340
      4333      4336      4339      4341      4333      4336      4339      4342
      4334      4333      4336      4337      4334      4333      4336      4338
      4334      4333      4336      4339      4335      4333      4336      4337
      4335      4333      4336      4338      4335      4333      4336      4339
      4336      4339      4342      4343      4336      4339      4342      4344
      4336      4339      4342      4345      4337      4336      4339      4340
      4337      4336      4339      4341      4337      4336      4339      4342
      4338      4336      4339      4340      4338      4336      4339      4341
      4338      4336      4339      4342      4339      4342      4345      4346
      4339      4342      4345      4347      4339      4342      4345      4348
      4340      4339      4342      4343      4340      4339      4342      4344
      4340      4339      4342      4345      4341      4339      4342      4343
      4341      4339      4342      4344      4341      4339      4342      4345
      4342      4345      4348      4349      4342      4345      4348      4350
      4342      4345      4348      4351      4343      4342      4345      4346
      4343      4342      4345      4347      4343      4342      4345      4348
      4344      4342      4345      4346      4344      4342      4345      4347
      4344      4342      4345      4348      4345      4348      4351      4352
      4345      4348      4351      4353      4346      4345      4348      4349
      4346      4345      4348      4350      4346      4345      4348      4351
      4347      4345      4348      4349      4347      4345      4348      4350
      4347      4345      4348      4351      4348      4351      4353      4354
      4348      4351      4353      4355      4349      4348      4351      4352
      4349      4348      4351      4353      4350      4348      4351      4352
      4350      4348      4351      4353      4351      4353      4355      4356
      4351      4353      4355      4357      4351      4353      4355      4358
      4352      4351      4353      4354      4352      4351      4353      4355
      4353      4355      4358      4359      4353      4355      4358      4360
      4353      4355      4358      4361      4354      4353      4355      4356
      4354      4353      4355      4357      4354      4353      4355      4358
      4355      4358      4361      4362      4355      4358      4361      4363
      4355      4358      4361      4364      4356      4355      4358      4359
      4356      4355      4358      4360      4356      4355      4358      4361
      4357      4355      4358      4359      4357      4355      4358      4360
      4357      4355      4358      4361      4358      4361      4364      4365
      4358      4361      4364      4366      4358      4361      4364      4367
      4359      4358      4361      4362      4359      4358      4361      4363
      4359      4358      4361      4364      4360      4358      4361      4362
      4360      4358      4361      4363      4360      4358      4361      4364
      4361      4364      4367      4368      4361      4364      4367      4369
      4361      4364      4367      4370      4362      4361      4364      4365
      4362      4361      4364      4366      4362      4361      4364      4367
      4363      4361      4364      4365      4363      4361      4364      4366
      4363      4361      4364      4367      4364      4367      4370      4371
      4364      4367      4370      4372      4364      4367      4370      4373
      4365      4364      4367      4368      4365      4364      4367      4369
      4365      4364      4367      4370      4366      4364      4367      4368
      4366      4364      4367      4369      4366      4364      4367      4370
      4367      4370      4373      4374      4367      4370      4373      4375
      4367      4370      4373      4376      4368      4367      4370      4371
      4368      4367      4370      4372      4368      4367      4370      4373
      4369      4367      4370      4371      4369      4367      4370      4372
      4369      4367      4370      4373      4370      4373      4376      4377
      4370      4373      4376      4378      4370      4373      4376      4379
      4371      4370      4373      4374      4371      4370      4373      4375
      4371      4370      4373      4376      4372      4370      4373      4374
      4372      4370      4373      4375      4372      4370      4373      4376
      4374      4373      4376      4377      4374      4373      4376      4378
      4374      4373      4376      4379      4375      4373      4376      4377
      4375      4373      4376      4378      4375      4373      4376      4379
      4380      4383      4386      4387      4380      4383      4386      4388
      4380      4383      4386      4389      4381      4380      4383      4384
      4381      4380      4383      4385      4381      4380      4383      4386
      4382      4380      4383      4384      4382      4380      4383      4385
      4382      4380      4383      4386      4383      4386      4389      4390
      4383      4386      4389      4391      4383      4386      4389      4392
      4384      4383      4386      4387      4384      4383      4386      4388
      4384      4383      4386      4389      4385      4383      4386      4387
      4385      4383      4386      4388      4385      4383      4386      4389
      4386      4389      4392      4393      4386      4389      4392      4394
      4386      4389      4392      4395      4387      4386      4389      4390
      4387      4386      4389      4391      4387      4386      4389      4392
      4388      4386      4389      4390      4388      4386      4389      4391
      4388      4386      4389      4392      4389      4392      4395      4396
      4389      4392      4395      4397      4389      4392      4395      4398
      4390      4389      4392      4393      4390      4389      4392      4394
      4390      4389      4392      4395      4391      4389      4392      4393
      4391      4389      4392      4394      4391      4389      4392      4395
      4392      4395      4398      4399      4392      4395      4398      4400
      4392      4395      4398      4401      4393      4392      4395      4396
      4393      4392      4395      4397      4393      4392      4395      4398
      4394      4392      4395      4396      4394      4392      4395      4397
      4394      4392      4395      4398      4395      4398      4401      4402
      4395      4398      4401      4403      4395      4398      4401      4404
      4396      4395      4398      4399      4396      4395      4398      4400
      4396      4395      4398      4401      4397      4395      4398      4399
      4397      4395      4398      4400      4397      4395      4398      4401
      4398      4401      4404      4405      4398      4401      4404      4406
      4398      4401      4404      4407      4399      4398      4401      4402
      4399      4398      4401      4403      4399      4398      4401      4404
      4400      4398      4401      4402      4400      4398      4401      4403
      4400      4398      4401      4404      4401      4404      4407      4408
      4401      4404      4407      4409      4401      4404      4407      4410
      4402      4401      4404      4405      4402      4401      4404      4406
      4402      4401      4404      4407      4403      4401      4404      4405
      4403      4401      4404      4406      4403      4401      4404      4407
      4404      4407      4410      4411      4404      4407      4410      4412
      4404      4407      4410      4413      4405      4404      4407      4408
      4405      4404      4407      4409      4405      4404      4407      4410
      4406      4404      4407      4408      4406      4404      4407      4409
      4406      4404      4407      4410      4407      4410      4413      4414
      4407      4410      4413      4415      4407      4410      4413      4416
      4408      4407      4410      4411      4408      4407      4410      4412
      4408      4407      4410      4413      4409      4407      4410      4411
      4409      4407      4410      4412      4409      4407      4410      4413
      4410      4413      4416      4417      4410      4413      4416      4418
      4410      4413      4416      4419      4411      4410      4413      4414
      4411      4410      4413      4415      4411      4410      4413      4416
      4412      4410      4413      4414      4412      4410      4413      4415
      4412      4410      4413      4416      4413      4416      4419      4420
      4413      4416      4419      4421      4413      4416      4419      4422
      4414      4413      4416      4417      4414      4413      4416      4418
      4414      4413      4416      4419      4415      4413      4416      4417
      4415      4413      4416      4418      4415      4413      4416      4419
      4417      4416      4419      4420      4417      4416      4419      4421
      4417      4416      4419      4422      4418      4416      4419      4420
      4418      4416      4419      4421      4418      4416      4419      4422
      4423      4424      4439      4440      4423      4424      4439      4441
      4423      4424      4439      4445      4424      4423      4427      4428
      4424      4423      4427      4429      4424      4423      4427      4430
      4424      4423      4431      4432      4424      4423      4431      4433
      4424      4423      4431      4434      4424      4423      4435      4436
      4424      4423      4435      4437      4424      4423      4435      4438
      4424      4439      4445      4442      4425      4424      4423      4427
      4425      4424      4423      4431      4425      4424      4423      4435
      4425      4424      4439      4440      4425      4424      4439      4441
      4425      4424      4439      4445      4426      4424      4423      4427
      4426      4424      4423      4431      4426      4424      4423      4435
      4426      4424      4439      4440      4426      4424      4439      4441
      4426      4424      4439      4445      4427      4423      4424      4439
      4427      4423      4431      4432      4427      4423      4431      4433
      4427      4423      4431      4434      4427      4423      4435      4436
      4427      4423      4435      4437      4427      4423      4435      4438
      4428      4427      4423      4431      4428      4427      4423      4435
      4429      4427      4423      4431      4429      4427      4423      4435
      4430      4427      4423      4431      4430      4427      4423      4435
      4431      4423      4424      4439      4431      4423      4435      4436
      4431      4423      4435      4437      4431      4423      4435      4438
      4432      4431      4423      4435      4433      4431      4423      4435
      4434      4431      4423      4435      4435      4423      4424      4439
      4439      4445      4442      4443      4439      4445      4442      4444
      4439      4445      4442      4446      4440      4439      4445      4442
      4441      4439      4445      4442      4442      4446      4447      4448
      4442      4446      4447      4449      4442      4446      4447      4450
      4443      4442      4446      4447      4444      4442      4446      4447
      4445      4442      4446      4447      4446      4447      4450      4451
      4446      4447      4450      4452      4446      4447      4450      4458
      4447      4450      4452      4453      4447      4450      4458      4459
      4447      4450      4458      4460      4447      4450      4458      4461
      4448      4447      4450      4451      4448      4447      4450      4452
      4448      4447      4450      4458      4449      4447      4450      4451
      4449      4447      4450      4452      4449      4447      4450      4458
      4450      4452      4453      4454      4450      4452      4453      4455
      4450      4458      4461      4462      4451      4450      4452      4453
      4451      4450      4458      4459      4451      4450      4458      4460
      4451      4450      4458      4461      4452      4450      4458      4459
      4452      4450      4458      4460      4452      4450      4458      4461
      4452      4453      4455      4456      4452      4453      4455      4457
      4452      4453      4455      4467      4453      4452      4450      4458
      4453      4455      4467      4468      4453      4455      4467      4469
      4453      4455      4467      4470      4454      4453      4455      4456
      4454      4453      4455      4457      4454      4453      4455      4467
      4455      4467      4470      4471      4455      4467      4470      4472
      4455      4467      4470      4473      4456      4455      4467      4468
      4456      4455      4467      4469      4456      4455      4467      4470
      4457      4455      4467      4468      4457      4455      4467      4469
      4457      4455      4467      4470      4458      4461      4462      4463
      4458      4461      4462      4464      4459      4458      4461      4462
      4460      4458      4461      4462      4461      4462      4464      4465
      4461      4462      4464      4466      4461      4462      4464      4514
      4462      4464      4514      4515      4462      4464      4514      4516
      4462      4464      4514      4517      4463      4462      4464      4465
      4463      4462      4464      4466      4463      4462      4464      4514
      4464      4514      4517      4518      4464      4514      4517      4519
      4464      4514      4517      4520      4465      4464      4514      4515
      4465      4464      4514      4516      4465      4464      4514      4517
      4466      4464      4514      4515      4466      4464      4514      4516
      4466      4464      4514      4517      4467      4470      4473      4474
      4467      4470      4473      4475      4467      4470      4473      4476
      4468      4467      4470      4471      4468      4467      4470      4472
      4468      4467      4470      4473      4469      4467      4470      4471
      4469      4467      4470      4472      4469      4467      4470      4473
      4470      4473      4476      4477      4470      4473      4476      4478
      4470      4473      4476      4479      4471      4470      4473      4474
      4471      4470      4473      4475      4471      4470      4473      4476
      4472      4470      4473      4474      4472      4470      4473      4475
      4472      4470      4473      4476      4473      4476      4479      4480
      4473      4476      4479      4481      4473      4476      4479      4482
      4474      4473      4476      4477      4474      4473      4476      4478
      4474      4473      4476      4479      4475      4473      4476      4477
      4475      4473      4476      4478      4475      4473      4476      4479
      4476      4479      4482      4483      4476      4479      4482      4484
      4476      4479      4482      4485      4477      4476      4479      4480
      4477      4476      4479      4481      4477      4476      4479      4482
      4478      4476      4479      4480      4478      4476      4479      4481
      4478      4476      4479      4482      4479      4482      4485      4486
      4479      4482      4485      4487      4480      4479      4482      4483
      4480      4479      4482      4484      4480      4479      4482      4485
      4481      4479      4482      4483      4481      4479      4482      4484
      4481      4479      4482      4485      4482      4485      4487      4488
      4482      4485      4487      4489      4483      4482      4485      4486
      4483      4482      4485      4487      4484      4482      4485      4486
      4484      4482      4485      4487      4485      4487      4489      4490
      4485      4487      4489      4491      4485      4487      4489      4492
      4486      4485      4487      4488      4486      4485      4487      4489
      4487      4489      4492      4493      4487      4489      4492      4494
      4487      4489      4492      4495      4488      4487      4489      4490
      4488      4487      4489      4491      4488      4487      4489      4492
      4489      4492      4495      4496      4489      4492      4495      4497
      4489      4492      4495      4498      4490      4489      4492      4493
      4490      4489      4492      4494      4490      4489      4492      4495
      4491      4489      4492      4493      4491      4489      4492      4494
      4491      4489      4492      4495      4492      4495      4498      4499
      4492      4495      4498      4500      4492      4495      4498      4501
      4493      4492      4495      4496      4493      4492      4495      4497
      4493      4492      4495      4498      4494      4492      4495      4496
      4494      4492      4495      4497      4494      4492      4495      4498
      4495      4498      4501      4502      4495      4498      4501      4503
      4495      4498      4501      4504      4496      4495      4498      4499
      4496      4495      4498      4500      4496      4495      4498      4501
      4497      4495      4498      4499      4497      4495      4498      4500
      4497      4495      4498      4501      4498      4501      4504      4505
      4498      4501      4504      4506      4498      4501      4504      4507
      4499      4498      4501      4502      4499      4498      4501      4503
      4499      4498      4501      4504      4500      4498      4501      4502
      4500      4498      4501      4503      4500      4498      4501      4504
      4501      4504      4507      4508      4501      4504      4507      4509
      4501      4504      4507      4510      4502      4501      4504      4505
      4502      4501      4504      4506      4502      4501      4504      4507
      4503      4501      4504      4505      4503      4501      4504      4506
      4503      4501      4504      4507      4504      4507      4510      4511
      4504      4507      4510      4512      4504      4507      4510      4513
      4505      4504      4507      4508      4505      4504      4507      4509
      4505      4504      4507      4510      4506      4504      4507      4508
      4506      4504      4507      4509      4506      4504      4507      4510
      4508      4507      4510      4511      4508      4507      4510      4512
      4508      4507      4510      4513      4509      4507      4510      4511
      4509      4507      4510      4512      4509      4507      4510      4513
      4514      4517      4520      4521      4514      4517      4520      4522
      4514      4517      4520      4523      4515      4514      4517      4518
      4515      4514      4517      4519      4515      4514      4517      4520
      4516      4514      4517      4518      4516      4514      4517      4519
      4516      4514      4517      4520      4517      4520      4523      4524
      4517      4520      4523      4525      4517      4520      4523      4526
      4518      4517      4520      4521      4518      4517      4520      4522
      4518      4517      4520      4523      4519      4517      4520      4521
      4519      4517      4520      4522      4519      4517      4520      4523
      4520      4523      4526      4527      4520      4523      4526      4528
      4520      4523      4526      4529      4521      4520      4523      4524
      4521      4520      4523      4525      4521      4520      4523      4526
      4522      4520      4523      4524      4522      4520      4523      4525
      4522      4520      4523      4526      4523      4526      4529      4530
      4523      4526      4529      4531      4523      4526      4529      4532
      4524      4523      4526      4527      4524      4523      4526      4528
      4524      4523      4526      4529      4525      4523      4526      4527
      4525      4523      4526      4528      4525      4523      4526      4529
      4526      4529      4532      4533      4526      4529      4532      4534
      4526      4529      4532      4535      4527      4526      4529      4530
      4527      4526      4529      4531      4527      4526      4529      4532
      4528      4526      4529      4530      4528      4526      4529      4531
      4528      4526      4529      4532      4529      4532      4535      4536
      4529      4532      4535      4537      4529      4532      4535      4538
      4530      4529      4532      4533      4530      4529      4532      4534
      4530      4529      4532      4535      4531      4529      4532      4533
      4531      4529      4532      4534      4531      4529      4532      4535
      4532      4535      4538      4539      4532      4535      4538      4540
      4532      4535      4538      4541      4533      4532      4535      4536
      4533      4532      4535      4537      4533      4532      4535      4538
      4534      4532      4535      4536      4534      4532      4535      4537
      4534      4532      4535      4538      4535      4538      4541      4542
      4535      4538      4541      4543      4535      4538      4541      4544
      4536      4535      4538      4539      4536      4535      4538      4540
      4536      4535      4538      4541      4537      4535      4538      4539
      4537      4535      4538      4540      4537      4535      4538      4541
      4538      4541      4544      4545      4538      4541      4544      4546
      4538      4541      4544      4547      4539      4538      4541      4542
      4539      4538      4541      4543      4539      4538      4541      4544
      4540      4538      4541      4542      4540      4538      4541      4543
      4540      4538      4541      4544      4541      4544      4547      4548
      4541      4544      4547      4549      4541      4544      4547      4550
      4542      4541      4544      4545      4542      4541      4544      4546
      4542      4541      4544      4547      4543      4541      4544      4545
      4543      4541      4544      4546      4543      4541      4544      4547
      4544      4547      4550      4551      4544      4547      4550      4552
      4544      4547      4550      4553      4545      4544      4547      4548
      4545      4544      4547      4549      4545      4544      4547      4550
      4546      4544      4547      4548      4546      4544      4547      4549
      4546      4544      4547      4550      4547      4550      4553      4554
      4547      4550      4553      4555      4547      4550      4553      4556
      4548      4547      4550      4551      4548      4547      4550      4552
      4548      4547      4550      4553      4549      4547      4550      4551
      4549      4547      4550      4552      4549      4547      4550      4553
      4551      4550      4553      4554      4551      4550      4553      4555
      4551      4550      4553      4556      4552      4550      4553      4554
      4552      4550      4553      4555      4552      4550      4553      4556
      4557      4558      4573      4574      4557      4558      4573      4575
      4557      4558      4573      4579      4558      4557      4561      4562
      4558      4557      4561      4563      4558      4557      4561      4564
      4558      4557      4565      4566      4558      4557      4565      4567
      4558      4557      4565      4568      4558      4557      4569      4570
      4558      4557      4569      4571      4558      4557      4569      4572
      4558      4573      4579      4576      4559      4558      4557      4561
      4559      4558      4557      4565      4559      4558      4557      4569
      4559      4558      4573      4574      4559      4558      4573      4575
      4559      4558      4573      4579      4560      4558      4557      4561
      4560      4558      4557      4565      4560      4558      4557      4569
      4560      4558      4573      4574      4560      4558      4573      4575
      4560      4558      4573      4579      4561      4557      4558      4573
      4561      4557      4565      4566      4561      4557      4565      4567
      4561      4557      4565      4568      4561      4557      4569      4570
      4561      4557      4569      4571      4561      4557      4569      4572
      4562      4561      4557      4565      4562      4561      4557      4569
      4563      4561      4557      4565      4563      4561      4557      4569
      4564      4561      4557      4565      4564      4561      4557      4569
      4565      4557      4558      4573      4565      4557      4569      4570
      4565      4557      4569      4571      4565      4557      4569      4572
      4566      4565      4557      4569      4567      4565      4557      4569
      4568      4565      4557      4569      4569      4557      4558      4573
      4573      4579      4576      4577      4573      4579      4576      4578
      4573      4579      4576      4580      4574      4573      4579      4576
      4575      4573      4579      4576      4576      4580      4581      4582
      4576      4580      4581      4583      4576      4580      4581      4584
      4577      4576      4580      4581      4578      4576      4580      4581
      4579      4576      4580      4581      4580      4581      4584      4585
      4580      4581      4584      4586      4580      4581      4584      4592
      4581      4584      4586      4587      4581      4584      4592      4593
      4581      4584      4592      4594      4581      4584      4592      4595
      4582      4581      4584      4585      4582      4581      4584      4586
      4582      4581      4584      4592      4583      4581      4584      4585
      4583      4581      4584      4586      4583      4581      4584      4592
      4584      4586      4587      4588      4584      4586      4587      4589
      4584      4592      4595      4596      4585      4584      4586      4587
      4585      4584      4592      4593      4585      4584      4592      4594
      4585      4584      4592      4595      4586      4584      4592      4593
      4586      4584      4592      4594      4586      4584      4592      4595
      4586      4587      4589      4590      4586      4587      4589      4591
      4586      4587      4589      4601      4587      4586      4584      4592
      4587      4589      4601      4602      4587      4589      4601      4603
      4587      4589      4601      4604      4588      4587      4589      4590
      4588      4587      4589      4591      4588      4587      4589      4601
      4589      4601      4604      4605      4589      4601      4604      4606
      4589      4601      4604      4607      4590      4589      4601      4602
      4590      4589      4601      4603      4590      4589      4601      4604
      4591      4589      4601      4602      4591      4589      4601      4603
      4591      4589      4601      4604      4592      4595      4596      4597
      4592      4595      4596      4598      4593      4592      4595      4596
      4594      4592      4595      4596      4595      4596      4598      4599
      4595      4596      4598      4600      4595      4596      4598      4648
      4596      4598      4648      4649      4596      4598      4648      4650
      4596      4598      4648      4651      4597      4596      4598      4599
      4597      4596      4598      4600      4597      4596      4598      4648
      4598      4648      4651      4652      4598      4648      4651      4653
      4598      4648      4651      4654      4599      4598      4648      4649
      4599      4598      4648      4650      4599      4598      4648      4651
      4600      4598      4648      4649      4600      4598      4648      4650
      4600      4598      4648      4651      4601      4604      4607      4608
      4601      4604      4607      4609      4601      4604      4607      4610
      4602      4601      4604      4605      4602      4601      4604      4606
      4602      4601      4604      4607      4603      4601      4604      4605
      4603      4601      4604      4606      4603      4601      4604      4607
      4604      4607      4610      4611      4604      4607      4610      4612
      4604      4607      4610      4613      4605      4604      4607      4608
      4605      4604      4607      4609      4605      4604      4607      4610
      4606      4604      4607      4608      4606      4604      4607      4609
      4606      4604      4607      4610      4607      4610      4613      4614
      4607      4610      4613      4615      4607      4610      4613      4616
      4608      4607      4610      4611      4608      4607      4610      4612
      4608      4607      4610      4613      4609      4607      4610      4611
      4609      4607      4610      4612      4609      4607      4610      4613
      4610      4613      4616      4617      4610      4613      4616      4618
      4610      4613      4616      4619      4611      4610      4613      4614
      4611      4610      4613      4615      4611      4610      4613      4616
      4612      4610      4613      4614      4612      4610      4613      4615
      4612      4610      4613      4616      4613      4616      4619      4620
      4613      4616      4619      4621      4614      4613      4616      4617
      4614      4613      4616      4618      4614      4613      4616      4619
      4615      4613      4616      4617      4615      4613      4616      4618
      4615      4613      4616      4619      4616      4619      4621      4622
      4616      4619      4621      4623      4617      4616      4619      4620
      4617      4616      4619      4621      4618      4616      4619      4620
      4618      4616      4619      4621      4619      4621      4623      4624
      4619      4621      4623      4625      4619      4621      4623      4626
      4620      4619      4621      4622      4620      4619      4621      4623
      4621      4623      4626      4627      4621      4623      4626      4628
      4621      4623      4626      4629      4622      4621      4623      4624
      4622      4621      4623      4625      4622      4621      4623      4626
      4623      4626      4629      4630      4623      4626      4629      4631
      4623      4626      4629      4632      4624      4623      4626      4627
      4624      4623      4626      4628      4624      4623      4626      4629
      4625      4623      4626      4627      4625      4623      4626      4628
      4625      4623      4626      4629      4626      4629      4632      4633
      4626      4629      4632      4634      4626      4629      4632      4635
      4627      4626      4629      4630      4627      4626      4629      4631
      4627      4626      4629      4632      4628      4626      4629      4630
      4628      4626      4629      4631      4628      4626      4629      4632
      4629      4632      4635      4636      4629      4632      4635      4637
      4629      4632      4635      4638      4630      4629      4632      4633
      4630      4629      4632      4634      4630      4629      4632      4635
      4631      4629      4632      4633      4631      4629      4632      4634
      4631      4629      4632      4635      4632      4635      4638      4639
      4632      4635      4638      4640      4632      4635      4638      4641
      4633      4632      4635      4636      4633      4632      4635      4637
      4633      4632      4635      4638      4634      4632      4635      4636
      4634      4632      4635      4637      4634      4632      4635      4638
      4635      4638      4641      4642      4635      4638      4641      4643
      4635      4638      4641      4644      4636      4635      4638      4639
      4636      4635      4638      4640      4636      4635      4638      4641
      4637      4635      4638      4639      4637      4635      4638      4640
      4637      4635      4638      4641      4638      4641      4644      4645
      4638      4641      4644      4646      4638      4641      4644      4647
      4639      4638      4641      4642      4639      4638      4641      4643
      4639      4638      4641      4644      4640      4638      4641      4642
      4640      4638      4641      4643      4640      4638      4641      4644
      4642      4641      4644      4645      4642      4641      4644      4646
      4642      4641      4644      4647      4643      4641      4644      4645
      4643      4641      4644      4646      4643      4641      4644      4647
      4648      4651      4654      4655      4648      4651      4654      4656
      4648      4651      4654      4657      4649      4648      4651      4652
      4649      4648      4651      4653      4649      4648      4651      4654
      4650      4648      4651      4652      4650      4648      4651      4653
      4650      4648      4651      4654      4651      4654      4657      4658
      4651      4654      4657      4659      4651      4654      4657      4660
      4652      4651      4654      4655      4652      4651      4654      4656
      4652      4651      4654      4657      4653      4651      4654      4655
      4653      4651      4654      4656      4653      4651      4654      4657
      4654      4657      4660      4661      4654      4657      4660      4662
      4654      4657      4660      4663      4655      4654      4657      4658
      4655      4654      4657      4659      4655      4654      4657      4660
      4656      4654      4657      4658      4656      4654      4657      4659
      4656      4654      4657      4660      4657      4660      4663      4664
      4657      4660      4663      4665      4657      4660      4663      4666
      4658      4657      4660      4661      4658      4657      4660      4662
      4658      4657      4660      4663      4659      4657      4660      4661
      4659      4657      4660      4662      4659      4657      4660      4663
      4660      4663      4666      4667      4660      4663      4666      4668
      4660      4663      4666      4669      4661      4660      4663      4664
      4661      4660      4663      4665      4661      4660      4663      4666
      4662      4660      4663      4664      4662      4660      4663      4665
      4662      4660      4663      4666      4663      4666      4669      4670
      4663      4666      4669      4671      4663      4666      4669      4672
      4664      4663      4666      4667      4664      4663      4666      4668
      4664      4663      4666      4669      4665      4663      4666      4667
      4665      4663      4666      4668      4665      4663      4666      4669
      4666      4669      4672      4673      4666      4669      4672      4674
      4666      4669      4672      4675      4667      4666      4669      4670
      4667      4666      4669      4671      4667      4666      4669      4672
      4668      4666      4669      4670      4668      4666      4669      4671
      4668      4666      4669      4672      4669      4672      4675      4676
      4669      4672      4675      4677      4669      4672      4675      4678
      4670      4669      4672      4673      4670      4669      4672      4674
      4670      4669      4672      4675      4671      4669      4672      4673
      4671      4669      4672      4674      4671      4669      4672      4675
      4672      4675      4678      4679      4672      4675      4678      4680
      4672      4675      4678      4681      4673      4672      4675      4676
      4673      4672      4675      4677      4673      4672      4675      4678
      4674      4672      4675      4676      4674      4672      4675      4677
      4674      4672      4675      4678      4675      4678      4681      4682
      4675      4678      4681      4683      4675      4678      4681      4684
      4676      4675      4678      4679      4676      4675      4678      4680
      4676      4675      4678      4681      4677      4675      4678      4679
      4677      4675      4678      4680      4677      4675      4678      4681
      4678      4681      4684      4685      4678      4681      4684      4686
      4678      4681      4684      4687      4679      4678      4681      4682
      4679      4678      4681      4683      4679      4678      4681      4684
      4680      4678      4681      4682      4680      4678      4681      4683
      4680      4678      4681      4684      4681      4684      4687      4688
      4681      4684      4687      4689      4681      4684      4687      4690
      4682      4681      4684      4685      4682      4681      4684      4686
      4682      4681      4684      4687      4683      4681      4684      4685
      4683      4681      4684      4686      4683      4681      4684      4687
      4685      4684      4687      4688      4685      4684      4687      4689
      4685      4684      4687      4690      4686      4684      4687      4688
      4686      4684      4687      4689      4686      4684      4687      4690
      4691      4692      4707      4708      4691      4692      4707      4709
      4691      4692      4707      4713      4692      4691      4695      4696
      4692      4691      4695      4697      4692      4691      4695      4698
      4692      4691      4699      4700      4692      4691      4699      4701
      4692      4691      4699      4702      4692      4691      4703      4704
      4692      4691      4703      4705      4692      4691      4703      4706
      4692      4707      4713      4710      4693      4692      4691      4695
      4693      4692      4691      4699      4693      4692      4691      4703
      4693      4692      4707      4708      4693      4692      4707      4709
      4693      4692      4707      4713      4694      4692      4691      4695
      4694      4692      4691      4699      4694      4692      4691      4703
      4694      4692      4707      4708      4694      4692      4707      4709
      4694      4692      4707      4713      4695      4691      4692      4707
      4695      4691      4699      4700      4695      4691      4699      4701
      4695      4691      4699      4702      4695      4691      4703      4704
      4695      4691      4703      4705      4695      4691      4703      4706
      4696      4695      4691      4699      4696      4695      4691      4703
      4697      4695      4691      4699      4697      4695      4691      4703
      4698      4695      4691      4699      4698      4695      4691      4703
      4699      4691      4692      4707      4699      4691      4703      4704
      4699      4691      4703      4705      4699      4691      4703      4706
      4700      4699      4691      4703      4701      4699      4691      4703
      4702      4699      4691      4703      4703      4691      4692      4707
      4707      4713      4710      4711      4707      4713      4710      4712
      4707      4713      4710      4714      4708      4707      4713      4710
      4709      4707      4713      4710      4710      4714      4715      4716
      4710      4714      4715      4717      4710      4714      4715      4718
      4711      4710      4714      4715      4712      4710      4714      4715
      4713      4710      4714      4715      4714      4715      4718      4719
      4714      4715      4718      4720      4714      4715      4718      4726
      4715      4718      4720      4721      4715      4718      4726      4727
      4715      4718      4726      4728      4715      4718      4726      4729
      4716      4715      4718      4719      4716      4715      4718      4720
      4716      4715      4718      4726      4717      4715      4718      4719
      4717      4715      4718      4720      4717      4715      4718      4726
      4718      4720      4721      4722      4718      4720      4721      4723
      4718      4726      4729      4730      4719      4718      4720      4721
      4719      4718      4726      4727      4719      4718      4726      4728
      4719      4718      4726      4729      4720      4718      4726      4727
      4720      4718      4726      4728      4720      4718      4726      4729
      4720      4721      4723      4724      4720      4721      4723      4725
      4720      4721      4723      4735      4721      4720      4718      4726
      4721      4723      4735      4736      4721      4723      4735      4737
      4721      4723      4735      4738      4722      4721      4723      4724
      4722      4721      4723      4725      4722      4721      4723      4735
      4723      4735      4738      4739      4723      4735      4738      4740
      4723      4735      4738      4741      4724      4723      4735      4736
      4724      4723      4735      4737      4724      4723      4735      4738
      4725      4723      4735      4736      4725      4723      4735      4737
      4725      4723      4735      4738      4726      4729      4730      4731
      4726      4729      4730      4732      4727      4726      4729      4730
      4728      4726      4729      4730      4729      4730      4732      4733
      4729      4730      4732      4734      4729      4730      4732      4782
      4730      4732      4782      4783      4730      4732      4782      4784
      4730      4732      4782      4785      4731      4730      4732      4733
      4731      4730      4732      4734      4731      4730      4732      4782
      4732      4782      4785      4786      4732      4782      4785      4787
      4732      4782      4785      4788      4733      4732      4782      4783
      4733      4732      4782      4784      4733      4732      4782      4785
      4734      4732      4782      4783      4734      4732      4782      4784
      4734      4732      4782      4785      4735      4738      4741      4742
      4735      4738      4741      4743      4735      4738      4741      4744
      4736      4735      4738      4739      4736      4735      4738      4740
      4736      4735      4738      4741      4737      4735      4738      4739
      4737      4735      4738      4740      4737      4735      4738      4741
      4738      4741      4744      4745      4738      4741      4744      4746
      4738      4741      4744      4747      4739      4738      4741      4742
      4739      4738      4741      4743      4739      4738      4741      4744
      4740      4738      4741      4742      4740      4738      4741      4743
      4740      4738      4741      4744      4741      4744      4747      4748
      4741      4744      4747      4749      4741      4744      4747      4750
      4742      4741      4744      4745      4742      4741      4744      4746
      4742      4741      4744      4747      4743      4741      4744      4745
      4743      4741      4744      4746      4743      4741      4744      4747
      4744      4747      4750      4751      4744      4747      4750      4752
      4744      4747      4750      4753      4745      4744      4747      4748
      4745      4744      4747      4749      4745      4744      4747      4750
      4746      4744      4747      4748      4746      4744      4747      4749
      4746      4744      4747      4750      4747      4750      4753      4754
      4747      4750      4753      4755      4748      4747      4750      4751
      4748      4747      4750      4752      4748      4747      4750      4753
      4749      4747      4750      4751      4749      4747      4750      4752
      4749      4747      4750      4753      4750      4753      4755      4756
      4750      4753      4755      4757      4751      4750      4753      4754
      4751      4750      4753      4755      4752      4750      4753      4754
      4752      4750      4753      4755      4753      4755      4757      4758
      4753      4755      4757      4759      4753      4755      4757      4760
      4754      4753      4755      4756      4754      4753      4755      4757
      4755      4757      4760      4761      4755      4757      4760      4762
      4755      4757      4760      4763      4756      4755      4757      4758
      4756      4755      4757      4759      4756      4755      4757      4760
      4757      4760      4763      4764      4757      4760      4763      4765
      4757      4760      4763      4766      4758      4757      4760      4761
      4758      4757      4760      4762      4758      4757      4760      4763
      4759      4757      4760      4761      4759      4757      4760      4762
      4759      4757      4760      4763      4760      4763      4766      4767
      4760      4763      4766      4768      4760      4763      4766      4769
      4761      4760      4763      4764      4761      4760      4763      4765
      4761      4760      4763      4766      4762      4760      4763      4764
      4762      4760      4763      4765      4762      4760      4763      4766
      4763      4766      4769      4770      4763      4766      4769      4771
      4763      4766      4769      4772      4764      4763      4766      4767
      4764      4763      4766      4768      4764      4763      4766      4769
      4765      4763      4766      4767      4765      4763      4766      4768
      4765      4763      4766      4769      4766      4769      4772      4773
      4766      4769      4772      4774      4766      4769      4772      4775
      4767      4766      4769      4770      4767      4766      4769      4771
      4767      4766      4769      4772      4768      4766      4769      4770
      4768      4766      4769      4771      4768      4766      4769      4772
      4769      4772      4775      4776      4769      4772      4775      4777
      4769      4772      4775      4778      4770      4769      4772      4773
      4770      4769      4772      4774      4770      4769      4772      4775
      4771      4769      4772      4773      4771      4769      4772      4774
      4771      4769      4772      4775      4772      4775      4778      4779
      4772      4775      4778      4780      4772      4775      4778      4781
      4773      4772      4775      4776      4773      4772      4775      4777
      4773      4772      4775      4778      4774      4772      4775      4776
      4774      4772      4775      4777      4774      4772      4775      4778
      4776      4775      4778      4779      4776      4775      4778      4780
      4776      4775      4778      4781      4777      4775      4778      4779
      4777      4775      4778      4780      4777      4775      4778      4781
      4782      4785      4788      4789      4782      4785      4788      4790
      4782      4785      4788      4791      4783      4782      4785      4786
      4783      4782      4785      4787      4783      4782      4785      4788
      4784      4782      4785      4786      4784      4782      4785      4787
      4784      4782      4785      4788      4785      4788      4791      4792
      4785      4788      4791      4793      4785      4788      4791      4794
      4786      4785      4788      4789      4786      4785      4788      4790
      4786      4785      4788      4791      4787      4785      4788      4789
      4787      4785      4788      4790      4787      4785      4788      4791
      4788      4791      4794      4795      4788      4791      4794      4796
      4788      4791      4794      4797      4789      4788      4791      4792
      4789      4788      4791      4793      4789      4788      4791      4794
      4790      4788      4791      4792      4790      4788      4791      4793
      4790      4788      4791      4794      4791      4794      4797      4798
      4791      4794      4797      4799      4791      4794      4797      4800
      4792      4791      4794      4795      4792      4791      4794      4796
      4792      4791      4794      4797      4793      4791      4794      4795
      4793      4791      4794      4796      4793      4791      4794      4797
      4794      4797      4800      4801      4794      4797      4800      4802
      4794      4797      4800      4803      4795      4794      4797      4798
      4795      4794      4797      4799      4795      4794      4797      4800
      4796      4794      4797      4798      4796      4794      4797      4799
      4796      4794      4797      4800      4797      4800      4803      4804
      4797      4800      4803      4805      4797      4800      4803      4806
      4798      4797      4800      4801      4798      4797      4800      4802
      4798      4797      4800      4803      4799      4797      4800      4801
      4799      4797      4800      4802      4799      4797      4800      4803
      4800      4803      4806      4807      4800      4803      4806      4808
      4800      4803      4806      4809      4801      4800      4803      4804
      4801      4800      4803      4805      4801      4800      4803      4806
      4802      4800      4803      4804      4802      4800      4803      4805
      4802      4800      4803      4806      4803      4806      4809      4810
      4803      4806      4809      4811      4803      4806      4809      4812
      4804      4803      4806      4807      4804      4803      4806      4808
      4804      4803      4806      4809      4805      4803      4806      4807
      4805      4803      4806      4808      4805      4803      4806      4809
      4806      4809      4812      4813      4806      4809      4812      4814
      4806      4809      4812      4815      4807      4806      4809      4810
      4807      4806      4809      4811      4807      4806      4809      4812
      4808      4806      4809      4810      4808      4806      4809      4811
      4808      4806      4809      4812      4809      4812      4815      4816
      4809      4812      4815      4817      4809      4812      4815      4818
      4810      4809      4812      4813      4810      4809      4812      4814
      4810      4809      4812      4815      4811      4809      4812      4813
      4811      4809      4812      4814      4811      4809      4812      4815
      4812      4815      4818      4819      4812      4815      4818      4820
      4812      4815      4818      4821      4813      4812      4815      4816
      4813      4812      4815      4817      4813      4812      4815      4818
      4814      4812      4815      4816      4814      4812      4815      4817
      4814      4812      4815      4818      4815      4818      4821      4822
      4815      4818      4821      4823      4815      4818      4821      4824
      4816      4815      4818      4819      4816      4815      4818      4820
      4816      4815      4818      4821      4817      4815      4818      4819
      4817      4815      4818      4820      4817      4815      4818      4821
      4819      4818      4821      4822      4819      4818      4821      4823
      4819      4818      4821      4824      4820      4818      4821      4822
      4820      4818      4821      4823      4820      4818      4821      4824
      4825      4826      4841      4842      4825      4826      4841      4843
      4825      4826      4841      4847      4826      4825      4829      4830
      4826      4825      4829      4831      4826      4825      4829      4832
      4826      4825      4833      4834      4826      4825      4833      4835
      4826      4825      4833      4836      4826      4825      4837      4838
      4826      4825      4837      4839      4826      4825      4837      4840
      4826      4841      4847      4844      4827      4826      4825      4829
      4827      4826      4825      4833      4827      4826      4825      4837
      4827      4826      4841      4842      4827      4826      4841      4843
      4827      4826      4841      4847      4828      4826      4825      4829
      4828      4826      4825      4833      4828      4826      4825      4837
      4828      4826      4841      4842      4828      4826      4841      4843
      4828      4826      4841      4847      4829      4825      4826      4841
      4829      4825      4833      4834      4829      4825      4833      4835
      4829      4825      4833      4836      4829      4825      4837      4838
      4829      4825      4837      4839      4829      4825      4837      4840
      4830      4829      4825      4833      4830      4829      4825      4837
      4831      4829      4825      4833      4831      4829      4825      4837
      4832      4829      4825      4833      4832      4829      4825      4837
      4833      4825      4826      4841      4833      4825      4837      4838
      4833      4825      4837      4839      4833      4825      4837      4840
      4834      4833      4825      4837      4835      4833      4825      4837
      4836      4833      4825      4837      4837      4825      4826      4841
      4841      4847      4844      4845      4841      4847      4844      4846
      4841      4847      4844      4848      4842      4841      4847      4844
      4843      4841      4847      4844      4844      4848      4849      4850
      4844      4848      4849      4851      4844      4848      4849      4852
      4845      4844      4848      4849      4846      4844      4848      4849
      4847      4844      4848      4849      4848      4849      4852      4853
      4848      4849      4852      4854      4848      4849      4852      4860
      4849      4852      4854      4855      4849      4852      4860      4861
      4849      4852      4860      4862      4849      4852      4860      4863
      4850      4849      4852      4853      4850      4849      4852      4854
      4850      4849      4852      4860      4851      4849      4852      4853
      4851      4849      4852      4854      4851      4849      4852      4860
      4852      4854      4855      4856      4852      4854      4855      4857
      4852      4860      4863      4864      4853      4852      4854      4855
      4853      4852      4860      4861      4853      4852      4860      4862
      4853      4852      4860      4863      4854      4852      4860      4861
      4854      4852      4860      4862      4854      4852      4860      4863
      4854      4855      4857      4858      4854      4855      4857      4859
      4854      4855      4857      4869      4855      4854      4852      4860
      4855      4857      4869      4870      4855      4857      4869      4871
      4855      4857      4869      4872      4856      4855      4857      4858
      4856      4855      4857      4859      4856      4855      4857      4869
      4857      4869      4872      4873      4857      4869      4872      4874
      4857      4869      4872      4875      4858      4857      4869      4870
      4858      4857      4869      4871      4858      4857      4869      4872
      4859      4857      4869      4870      4859      4857      4869      4871
      4859      4857      4869      4872      4860      4863      4864      4865
      4860      4863      4864      4866      4861      4860      4863      4864
      4862      4860      4863      4864      4863      4864      4866      4867
      4863      4864      4866      4868      4863      4864      4866      4916
      4864      4866      4916      4917      4864      4866      4916      4918
      4864      4866      4916      4919      4865      4864      4866      4867
      4865      4864      4866      4868      4865      4864      4866      4916
      4866      4916      4919      4920      4866      4916      4919      4921
      4866      4916      4919      4922      4867      4866      4916      4917
      4867      4866      4916      4918      4867      4866      4916      4919
      4868      4866      4916      4917      4868      4866      4916      4918
      4868      4866      4916      4919      4869      4872      4875      4876
      4869      4872      4875      4877      4869      4872      4875      4878
      4870      4869      4872      4873      4870      4869      4872      4874
      4870      4869      4872      4875      4871      4869      4872      4873
      4871      4869      4872      4874      4871      4869      4872      4875
      4872      4875      4878      4879      4872      4875      4878      4880
      4872      4875      4878      4881      4873      4872      4875      4876
      4873      4872      4875      4877      4873      4872      4875      4878
      4874      4872      4875      4876      4874      4872      4875      4877
      4874      4872      4875      4878      4875      4878      4881      4882
      4875      4878      4881      4883      4875      4878      4881      4884
      4876      4875      4878      4879      4876      4875      4878      4880
      4876      4875      4878      4881      4877      4875      4878      4879
      4877      4875      4878      4880      4877      4875      4878      4881
      4878      4881      4884      4885      4878      4881      4884      4886
      4878      4881      4884      4887      4879      4878      4881      4882
      4879      4878      4881      4883      4879      4878      4881      4884
      4880      4878      4881      4882      4880      4878      4881      4883
      4880      4878      4881      4884      4881      4884      4887      4888
      4881      4884      4887      4889      4882      4881      4884      4885
      4882      4881      4884      4886      4882      4881      4884      4887
      4883      4881      4884      4885      4883      4881      4884      4886
      4883      4881      4884      4887      4884      4887      4889      4890
      4884      4887      4889      4891      4885      4884      4887      4888
      4885      4884      4887      4889      4886      4884      4887      4888
      4886      4884      4887      4889      4887      4889      4891      4892
      4887      4889      4891      4893      4887      4889      4891      4894
      4888      4887      4889      4890      4888      4887      4889      4891
      4889      4891      4894      4895      4889      4891      4894      4896
      4889      4891      4894      4897      4890      4889      4891      4892
      4890      4889      4891      4893      4890      4889      4891      4894
      4891      4894      4897      4898      4891      4894      4897      4899
      4891      4894      4897      4900      4892      4891      4894      4895
      4892      4891      4894      4896      4892      4891      4894      4897
      4893      4891      4894      4895      4893      4891      4894      4896
      4893      4891      4894      4897      4894      4897      4900      4901
      4894      4897      4900      4902      4894      4897      4900      4903
      4895      4894      4897      4898      4895      4894      4897      4899
      4895      4894      4897      4900      4896      4894      4897      4898
      4896      4894      4897      4899      4896      4894      4897      4900
      4897      4900      4903      4904      4897      4900      4903      4905
      4897      4900      4903      4906      4898      4897      4900      4901
      4898      4897      4900      4902      4898      4897      4900      4903
      4899      4897      4900      4901      4899      4897      4900      4902
      4899      4897      4900      4903      4900      4903      4906      4907
      4900      4903      4906      4908      4900      4903      4906      4909
      4901      4900      4903      4904      4901      4900      4903      4905
      4901      4900      4903      4906      4902      4900      4903      4904
      4902      4900      4903      4905      4902      4900      4903      4906
      4903      4906      4909      4910      4903      4906      4909      4911
      4903      4906      4909      4912      4904      4903      4906      4907
      4904      4903      4906      4908      4904      4903      4906      4909
      4905      4903      4906      4907      4905      4903      4906      4908
      4905      4903      4906      4909      4906      4909      4912      4913
      4906      4909      4912      4914      4906      4909      4912      4915
      4907      4906      4909      4910      4907      4906      4909      4911
      4907      4906      4909      4912      4908      4906      4909      4910
      4908      4906      4909      4911      4908      4906      4909      4912
      4910      4909      4912      4913      4910      4909      4912      4914
      4910      4909      4912      4915      4911      4909      4912      4913
      4911      4909      4912      4914      4911      4909      4912      4915
      4916      4919      4922      4923      4916      4919      4922      4924
      4916      4919      4922      4925      4917      4916      4919      4920
      4917      4916      4919      4921      4917      4916      4919      4922
      4918      4916      4919      4920      4918      4916      4919      4921
      4918      4916      4919      4922      4919      4922      4925      4926
      4919      4922      4925      4927      4919      4922      4925      4928
      4920      4919      4922      4923      4920      4919      4922      4924
      4920      4919      4922      4925      4921      4919      4922      4923
      4921      4919      4922      4924      4921      4919      4922      4925
      4922      4925      4928      4929      4922      4925      4928      4930
      4922      4925      4928      4931      4923      4922      4925      4926
      4923      4922      4925      4927      4923      4922      4925      4928
      4924      4922      4925      4926      4924      4922      4925      4927
      4924      4922      4925      4928      4925      4928      4931      4932
      4925      4928      4931      4933      4925      4928      4931      4934
      4926      4925      4928      4929      4926      4925      4928      4930
      4926      4925      4928      4931      4927      4925      4928      4929
      4927      4925      4928      4930      4927      4925      4928      4931
      4928      4931      4934      4935      4928      4931      4934      4936
      4928      4931      4934      4937      4929      4928      4931      4932
      4929      4928      4931      4933      4929      4928      4931      4934
      4930      4928      4931      4932      4930      4928      4931      4933
      4930      4928      4931      4934      4931      4934      4937      4938
      4931      4934      4937      4939      4931      4934      4937      4940
      4932      4931      4934      4935      4932      4931      4934      4936
      4932      4931      4934      4937      4933      4931      4934      4935
      4933      4931      4934      4936      4933      4931      4934      4937
      4934      4937      4940      4941      4934      4937      4940      4942
      4934      4937      4940      4943      4935      4934      4937      4938
      4935      4934      4937      4939      4935      4934      4937      4940
      4936      4934      4937      4938      4936      4934      4937      4939
      4936      4934      4937      4940      4937      4940      4943      4944
      4937      4940      4943      4945      4937      4940      4943      4946
      4938      4937      4940      4941      4938      4937      4940      4942
      4938      4937      4940      4943      4939      4937      4940      4941
      4939      4937      4940      4942      4939      4937      4940      4943
      4940      4943      4946      4947      4940      4943      4946      4948
      4940      4943      4946      4949      4941      4940      4943      4944
      4941      4940      4943      4945      4941      4940      4943      4946
      4942      4940      4943      4944      4942      4940      4943      4945
      4942      4940      4943      4946      4943      4946      4949      4950
      4943      4946      4949      4951      4943      4946      4949      4952
      4944      4943      4946      4947      4944      4943      4946      4948
      4944      4943      4946      4949      4945      4943      4946      4947
      4945      4943      4946      4948      4945      4943      4946      4949
      4946      4949      4952      4953      4946      4949      4952      4954
      4946      4949      4952      4955      4947      4946      4949      4950
      4947      4946      4949      4951      4947      4946      4949      4952
      4948      4946      4949      4950      4948      4946      4949      4951
      4948      4946      4949      4952      4949      4952      4955      4956
      4949      4952      4955      4957      4949      4952      4955      4958
      4950      4949      4952      4953      4950      4949      4952      4954
      4950      4949      4952      4955      4951      4949      4952      4953
      4951      4949      4952      4954      4951      4949      4952      4955
      4953      4952      4955      4956      4953      4952      4955      4957
      4953      4952      4955      4958      4954      4952      4955      4956
      4954      4952      4955      4957      4954      4952      4955      4958
      4959      4960      4975      4976      4959      4960      4975      4977
      4959      4960      4975      4981      4960      4959      4963      4964
      4960      4959      4963      4965      4960      4959      4963      4966
      4960      4959      4967      4968      4960      4959      4967      4969
      4960      4959      4967      4970      4960      4959      4971      4972
      4960      4959      4971      4973      4960      4959      4971      4974
      4960      4975      4981      4978      4961      4960      4959      4963
      4961      4960      4959      4967      4961      4960      4959      4971
      4961      4960      4975      4976      4961      4960      4975      4977
      4961      4960      4975      4981      4962      4960      4959      4963
      4962      4960      4959      4967      4962      4960      4959      4971
      4962      4960      4975      4976      4962      4960      4975      4977
      4962      4960      4975      4981      4963      4959      4960      4975
      4963      4959      4967      4968      4963      4959      4967      4969
      4963      4959      4967      4970      4963      4959      4971      4972
      4963      4959      4971      4973      4963      4959      4971      4974
      4964      4963      4959      4967      4964      4963      4959      4971
      4965      4963      4959      4967      4965      4963      4959      4971
      4966      4963      4959      4967      4966      4963      4959      4971
      4967      4959      4960      4975      4967      4959      4971      4972
      4967      4959      4971      4973      4967      4959      4971      4974
      4968      4967      4959      4971      4969      4967      4959      4971
      4970      4967      4959      4971      4971      4959      4960      4975
      4975      4981      4978      4979      4975      4981      4978      4980
      4975      4981      4978      4982      4976      4975      4981      4978
      4977      4975      4981      4978      4978      4982      4983      4984
      4978      4982      4983      4985      4978      4982      4983      4986
      4979      4978      4982      4983      4980      4978      4982      4983
      4981      4978      4982      4983      4982      4983      4986      4987
      4982      4983      4986      4988      4982      4983      4986      4994
      4983      4986      4988      4989      4983      4986      4994      4995
      4983      4986      4994      4996      4983      4986      4994      4997
      4984      4983      4986      4987      4984      4983      4986      4988
      4984      4983      4986      4994      4985      4983      4986      4987
      4985      4983      4986      4988      4985      4983      4986      4994
      4986      4988      4989      4990      4986      4988      4989      4991
      4986      4994      4997      4998      4987      4986      4988      4989
      4987      4986      4994      4995      4987      4986      4994      4996
      4987      4986      4994      4997      4988      4986      4994      4995
      4988      4986      4994      4996      4988      4986      4994      4997
      4988      4989      4991      4992      4988      4989      4991      4993
      4988      4989      4991      5003      4989      4988      4986      4994
      4989      4991      5003      5004      4989      4991      5003      5005
      4989      4991      5003      5006      4990      4989      4991      4992
      4990      4989      4991      4993      4990      4989      4991      5003
      4991      5003      5006      5007      4991      5003      5006      5008
      4991      5003      5006      5009      4992      4991      5003      5004
      4992      4991      5003      5005      4992      4991      5003      5006
      4993      4991      5003      5004      4993      4991      5003      5005
      4993      4991      5003      5006      4994      4997      4998      4999
      4994      4997      4998      5000      4995      4994      4997      4998
      4996      4994      4997      4998      4997      4998      5000      5001
      4997      4998      5000      5002      4997      4998      5000      5050
      4998      5000      5050      5051      4998      5000      5050      5052
      4998      5000      5050      5053      4999      4998      5000      5001
      4999      4998      5000      5002      4999      4998      5000      5050
      5000      5050      5053      5054      5000      5050      5053      5055
      5000      5050      5053      5056      5001      5000      5050      5051
      5001      5000      5050      5052      5001      5000      5050      5053
      5002      5000      5050      5051      5002      5000      5050      5052
      5002      5000      5050      5053      5003      5006      5009      5010
      5003      5006      5009      5011      5003      5006      5009      5012
      5004      5003      5006      5007      5004      5003      5006      5008
      5004      5003      5006      5009      5005      5003      5006      5007
      5005      5003      5006      5008      5005      5003      5006      5009
      5006      5009      5012      5013      5006      5009      5012      5014
      5006      5009      5012      5015      5007      5006      5009      5010
      5007      5006      5009      5011      5007      5006      5009      5012
      5008      5006      5009      5010      5008      5006      5009      5011
      5008      5006      5009      5012      5009      5012      5015      5016
      5009      5012      5015      5017      5009      5012      5015      5018
      5010      5009      5012      5013      5010      5009      5012      5014
      5010      5009      5012      5015      5011      5009      5012      5013
      5011      5009      5012      5014      5011      5009      5012      5015
      5012      5015      5018      5019      5012      5015      5018      5020
      5012      5015      5018      5021      5013      5012      5015      5016
      5013      5012      5015      5017      5013      5012      5015      5018
      5014      5012      5015      5016      5014      5012      5015      5017
      5014      5012      5015      5018      5015      5018      5021      5022
      5015      5018      5021      5023      5016      5015      5018      5019
      5016      5015      5018      5020      5016      5015      5018      5021
      5017      5015      5018      5019      5017      5015      5018      5020
      5017      5015      5018      5021      5018      5021      5023      5024
      5018      5021      5023      5025      5019      5018      5021      5022
      5019      5018      5021      5023      5020      5018      5021      5022
      5020      5018      5021      5023      5021      5023      5025      5026
      5021      5023      5025      5027      5021      5023      5025      5028
      5022      5021      5023      5024      5022      5021      5023      5025
      5023      5025      5028      5029      5023      5025      5028      5030
      5023      5025      5028      5031      5024      5023      5025      5026
      5024      5023      5025      5027      5024      5023      5025      5028
      5025      5028      5031      5032      5025      5028      5031      5033
      5025      5028      5031      5034      5026      5025      5028      5029
      5026      5025      5028      5030      5026      5025      5028      5031
      5027      5025      5028      5029      5027      5025      5028      5030
      5027      5025      5028      5031      5028      5031      5034      5035
      5028      5031      5034      5036      5028      5031      5034      5037
      5029      5028      5031      5032      5029      5028      5031      5033
      5029      5028      5031      5034      5030      5028      5031      5032
      5030      5028      5031      5033      5030      5028      5031      5034
      5031      5034      5037      5038      5031      5034      5037      5039
      5031      5034      5037      5040      5032      5031      5034      5035
      5032      5031      5034      5036      5032      5031      5034      5037
      5033      5031      5034      5035      5033      5031      5034      5036
      5033      5031      5034      5037      5034      5037      5040      5041
      5034      5037      5040      5042      5034      5037      5040      5043
      5035      5034      5037      5038      5035      5034      5037      5039
      5035      5034      5037      5040      5036      5034      5037      5038
      5036      5034      5037      5039      5036      5034      5037      5040
      5037      5040      5043      5044      5037      5040      5043      5045
      5037      5040      5043      5046      5038      5037      5040      5041
      5038      5037      5040      5042      5038      5037      5040      5043
      5039      5037      5040      5041      5039      5037      5040      5042
      5039      5037      5040      5043      5040      5043      5046      5047
      5040      5043      5046      5048      5040      5043      5046      5049
      5041      5040      5043      5044      5041      5040      5043      5045
      5041      5040      5043      5046      5042      5040      5043      5044
      5042      5040      5043      5045      5042      5040      5043      5046
      5044      5043      5046      5047      5044      5043      5046      5048
      5044      5043      5046      5049      5045      5043      5046      5047
      5045      5043      5046      5048      5045      5043      5046      5049
      5050      5053      5056      5057      5050      5053      5056      5058
      5050      5053      5056      5059      5051      5050      5053      5054
      5051      5050      5053      5055      5051      5050      5053      5056
      5052      5050      5053      5054      5052      5050      5053      5055
      5052      5050      5053      5056      5053      5056      5059      5060
      5053      5056      5059      5061      5053      5056      5059      5062
      5054      5053      5056      5057      5054      5053      5056      5058
      5054      5053      5056      5059      5055      5053      5056      5057
      5055      5053      5056      5058      5055      5053      5056      5059
      5056      5059      5062      5063      5056      5059      5062      5064
      5056      5059      5062      5065      5057      5056      5059      5060
      5057      5056      5059      5061      5057      5056      5059      5062
      5058      5056      5059      5060      5058      5056      5059      5061
      5058      5056      5059      5062      5059      5062      5065      5066
      5059      5062      5065      5067      5059      5062      5065      5068
      5060      5059      5062      5063      5060      5059      5062      5064
      5060      5059      5062      5065      5061      5059      5062      5063
      5061      5059      5062      5064      5061      5059      5062      5065
      5062      5065      5068      5069      5062      5065      5068      5070
      5062      5065      5068      5071      5063      5062      5065      5066
      5063      5062      5065      5067      5063      5062      5065      5068
      5064      5062      5065      5066      5064      5062      5065      5067
      5064      5062      5065      5068      5065      5068      5071      5072
      5065      5068      5071      5073      5065      5068      5071      5074
      5066      5065      5068      5069      5066      5065      5068      5070
      5066      5065      5068      5071      5067      5065      5068      5069
      5067      5065      5068      5070      5067      5065      5068      5071
      5068      5071      5074      5075      5068      5071      5074      5076
      5068      5071      5074      5077      5069      5068      5071      5072
      5069      5068      5071      5073      5069      5068      5071      5074
      5070      5068      5071      5072      5070      5068      5071      5073
      5070      5068      5071      5074      5071      5074      5077      5078
      5071      5074      5077      5079      5071      5074      5077      5080
      5072      5071      5074      5075      5072      5071      5074      5076
      5072      5071      5074      5077      5073      5071      5074      5075
      5073      5071      5074      5076      5073      5071      5074      5077
      5074      5077      5080      5081      5074      5077      5080      5082
      5074      5077      5080      5083      5075      5074      5077      5078
      5075      5074      5077      5079      5075      5074      5077      5080
      5076      5074      5077      5078      5076      5074      5077      5079
      5076      5074      5077      5080      5077      5080      5083      5084
      5077      5080      5083      5085      5077      5080      5083      5086
      5078      5077      5080      5081      5078      5077      5080      5082
      5078      5077      5080      5083      5079      5077      5080      5081
      5079      5077      5080      5082      5079      5077      5080      5083
      5080      5083      5086      5087      5080      5083      5086      5088
      5080      5083      5086      5089      5081      5080      5083      5084
      5081      5080      5083      5085      5081      5080      5083      5086
      5082      5080      5083      5084      5082      5080      5083      5085
      5082      5080      5083      5086      5083      5086      5089      5090
      5083      5086      5089      5091      5083      5086      5089      5092
      5084      5083      5086      5087      5084      5083      5086      5088
      5084      5083      5086      5089      5085      5083      5086      5087
      5085      5083      5086      5088      5085      5083      5086      5089
      5087      5086      5089      5090      5087      5086      5089      5091
      5087      5086      5089      5092      5088      5086      5089      5090
      5088      5086      5089      5091      5088      5086      5089      5092
      5093      5094      5109      5110      5093      5094      5109      5111
      5093      5094      5109      5115      5094      5093      5097      5098
      5094      5093      5097      5099      5094      5093      5097      5100
      5094      5093      5101      5102      5094      5093      5101      5103
      5094      5093      5101      5104      5094      5093      5105      5106
      5094      5093      5105      5107      5094      5093      5105      5108
      5094      5109      5115      5112      5095      5094      5093      5097
      5095      5094      5093      5101      5095      5094      5093      5105
      5095      5094      5109      5110      5095      5094      5109      5111
      5095      5094      5109      5115      5096      5094      5093      5097
      5096      5094      5093      5101      5096      5094      5093      5105
      5096      5094      5109      5110      5096      5094      5109      5111
      5096      5094      5109      5115      5097      5093      5094      5109
      5097      5093      5101      5102      5097      5093      5101      5103
      5097      5093      5101      5104      5097      5093      5105      5106
      5097      5093      5105      5107      5097      5093      5105      5108
      5098      5097      5093      5101      5098      5097      5093      5105
      5099      5097      5093      5101      5099      5097      5093      5105
      5100      5097      5093      5101      5100      5097      5093      5105
      5101      5093      5094      5109      5101      5093      5105      5106
      5101      5093      5105      5107      5101      5093      5105      5108
      5102      5101      5093      5105      5103      5101      5093      5105
      5104      5101      5093      5105      5105      5093      5094      5109
      5109      5115      5112      5113      5109      5115      5112      5114
      5109      5115      5112      5116      5110      5109      5115      5112
      5111      5109      5115      5112      5112      5116      5117      5118
      5112      5116      5117      5119      5112      5116      5117      5120
      5113      5112      5116      5117      5114      5112      5116      5117
      5115      5112      5116      5117      5116      5117      5120      5121
      5116      5117      5120      5122      5116      5117      5120      5128
      5117      5120      5122      5123      5117      5120      5128      5129
      5117      5120      5128      5130      5117      5120      5128      5131
      5118      5117      5120      5121      5118      5117      5120      5122
      5118      5117      5120      5128      5119      5117      5120      5121
      5119      5117      5120      5122      5119      5117      5120      5128
      5120      5122      5123      5124      5120      5122      5123      5125
      5120      5128      5131      5132      5121      5120      5122      5123
      5121      5120      5128      5129      5121      5120      5128      5130
      5121      5120      5128      5131      5122      5120      5128      5129
      5122      5120      5128      5130      5122      5120      5128      5131
      5122      5123      5125      5126      5122      5123      5125      5127
      5122      5123      5125      5137      5123      5122      5120      5128
      5123      5125      5137      5138      5123      5125      5137      5139
      5123      5125      5137      5140      5124      5123      5125      5126
      5124      5123      5125      5127      5124      5123      5125      5137
      5125      5137      5140      5141      5125      5137      5140      5142
      5125      5137      5140      5143      5126      5125      5137      5138
      5126      5125      5137      5139      5126      5125      5137      5140
      5127      5125      5137      5138      5127      5125      5137      5139
      5127      5125      5137      5140      5128      5131      5132      5133
      5128      5131      5132      5134      5129      5128      5131      5132
      5130      5128      5131      5132      5131      5132      5134      5135
      5131      5132      5134      5136      5131      5132      5134      5184
      5132      5134      5184      5185      5132      5134      5184      5186
      5132      5134      5184      5187      5133      5132      5134      5135
      5133      5132      5134      5136      5133      5132      5134      5184
      5134      5184      5187      5188      5134      5184      5187      5189
      5134      5184      5187      5190      5135      5134      5184      5185
      5135      5134      5184      5186      5135      5134      5184      5187
      5136      5134      5184      5185      5136      5134      5184      5186
      5136      5134      5184      5187      5137      5140      5143      5144
      5137      5140      5143      5145      5137      5140      5143      5146
      5138      5137      5140      5141      5138      5137      5140      5142
      5138      5137      5140      5143      5139      5137      5140      5141
      5139      5137      5140      5142      5139      5137      5140      5143
      5140      5143      5146      5147      5140      5143      5146      5148
      5140      5143      5146      5149      5141      5140      5143      5144
      5141      5140      5143      5145      5141      5140      5143      5146
      5142      5140      5143      5144      5142      5140      5143      5145
      5142      5140      5143      5146      5143      5146      5149      5150
      5143      5146      5149      5151      5143      5146      5149      5152
      5144      5143      5146      5147      5144      5143      5146      5148
      5144      5143      5146      5149      5145      5143      5146      5147
      5145      5143      5146      5148      5145      5143      5146      5149
      5146      5149      5152      5153      5146      5149      5152      5154
      5146      5149      5152      5155      5147      5146      5149      5150
      5147      5146      5149      5151      5147      5146      5149      5152
      5148      5146      5149      5150      5148      5146      5149      5151
      5148      5146      5149      5152      5149      5152      5155      5156
      5149      5152      5155      5157      5150      5149      5152      5153
      5150      5149      5152      5154      5150      5149      5152      5155
      5151      5149      5152      5153      5151      5149      5152      5154
      5151      5149      5152      5155      5152      5155      5157      5158
      5152      5155      5157      5159      5153      5152      5155      5156
      5153      5152      5155      5157      5154      5152      5155      5156
      5154      5152      5155      5157      5155      5157      5159      5160
      5155      5157      5159      5161      5155      5157      5159      5162
      5156      5155      5157      5158      5156      5155      5157      5159
      5157      5159      5162      5163      5157      5159      5162      5164
      5157      5159      5162      5165      5158      5157      5159      5160
      5158      5157      5159      5161      5158      5157      5159      5162
      5159      5162      5165      5166      5159      5162      5165      5167
      5159      5162      5165      5168      5160      5159      5162      5163
      5160      5159      5162      5164      5160      5159      5162      5165
      5161      5159      5162      5163      5161      5159      5162      5164
      5161      5159      5162      5165      5162      5165      5168      5169
      5162      5165      5168      5170      5162      5165      5168      5171
      5163      5162      5165      5166      5163      5162      5165      5167
      5163      5162      5165      5168      5164      5162      5165      5166
      5164      5162      5165      5167      5164      5162      5165      5168
      5165      5168      5171      5172      5165      5168      5171      5173
      5165      5168      5171      5174      5166      5165      5168      5169
      5166      5165      5168      5170      5166      5165      5168      5171
      5167      5165      5168      5169      5167      5165      5168      5170
      5167      5165      5168      5171      5168      5171      5174      5175
      5168      5171      5174      5176      5168      5171      5174      5177
      5169      5168      5171      5172      5169      5168      5171      5173
      5169      5168      5171      5174      5170      5168      5171      5172
      5170      5168      5171      5173      5170      5168      5171      5174
      5171      5174      5177      5178      5171      5174      5177      5179
      5171      5174      5177      5180      5172      5171      5174      5175
      5172      5171      5174      5176      5172      5171      5174      5177
      5173      5171      5174      5175      5173      5171      5174      5176
      5173      5171      5174      5177      5174      5177      5180      5181
      5174      5177      5180      5182      5174      5177      5180      5183
      5175      5174      5177      5178      5175      5174      5177      5179
      5175      5174      5177      5180      5176      5174      5177      5178
      5176      5174      5177      5179      5176      5174      5177      5180
      5178      5177      5180      5181      5178      5177      5180      5182
      5178      5177      5180      5183      5179      5177      5180      5181
      5179      5177      5180      5182      5179      5177      5180      5183
      5184      5187      5190      5191      5184      5187      5190      5192
      5184      5187      5190      5193      5185      5184      5187      5188
      5185      5184      5187      5189      5185      5184      5187      5190
      5186      5184      5187      5188      5186      5184      5187      5189
      5186      5184      5187      5190      5187      5190      5193      5194
      5187      5190      5193      5195      5187      5190      5193      5196
      5188      5187      5190      5191      5188      5187      5190      5192
      5188      5187      5190      5193      5189      5187      5190      5191
      5189      5187      5190      5192      5189      5187      5190      5193
      5190      5193      5196      5197      5190      5193      5196      5198
      5190      5193      5196      5199      5191      5190      5193      5194
      5191      5190      5193      5195      5191      5190      5193      5196
      5192      5190      5193      5194      5192      5190      5193      5195
      5192      5190      5193      5196      5193      5196      5199      5200
      5193      5196      5199      5201      5193      5196      5199      5202
      5194      5193      5196      5197      5194      5193      5196      5198
      5194      5193      5196      5199      5195      5193      5196      5197
      5195      5193      5196      5198      5195      5193      5196      5199
      5196      5199      5202      5203      5196      5199      5202      5204
      5196      5199      5202      5205      5197      5196      5199      5200
      5197      5196      5199      5201      5197      5196      5199      5202
      5198      5196      5199      5200      5198      5196      5199      5201
      5198      5196      5199      5202      5199      5202      5205      5206
      5199      5202      5205      5207      5199      5202      5205      5208
      5200      5199      5202      5203      5200      5199      5202      5204
      5200      5199      5202      5205      5201      5199      5202      5203
      5201      5199      5202      5204      5201      5199      5202      5205
      5202      5205      5208      5209      5202      5205      5208      5210
      5202      5205      5208      5211      5203      5202      5205      5206
      5203      5202      5205      5207      5203      5202      5205      5208
      5204      5202      5205      5206      5204      5202      5205      5207
      5204      5202      5205      5208      5205      5208      5211      5212
      5205      5208      5211      5213      5205      5208      5211      5214
      5206      5205      5208      5209      5206      5205      5208      5210
      5206      5205      5208      5211      5207      5205      5208      5209
      5207      5205      5208      5210      5207      5205      5208      5211
      5208      5211      5214      5215      5208      5211      5214      5216
      5208      5211      5214      5217      5209      5208      5211      5212
      5209      5208      5211      5213      5209      5208      5211      5214
      5210      5208      5211      5212      5210      5208      5211      5213
      5210      5208      5211      5214      5211      5214      5217      5218
      5211      5214      5217      5219      5211      5214      5217      5220
      5212      5211      5214      5215      5212      5211      5214      5216
      5212      5211      5214      5217      5213      5211      5214      5215
      5213      5211      5214      5216      5213      5211      5214      5217
      5214      5217      5220      5221      5214      5217      5220      5222
      5214      5217      5220      5223      5215      5214      5217      5218
      5215      5214      5217      5219      5215      5214      5217      5220
      5216      5214      5217      5218      5216      5214      5217      5219
      5216      5214      5217      5220      5217      5220      5223      5224
      5217      5220      5223      5225      5217      5220      5223      5226
      5218      5217      5220      5221      5218      5217      5220      5222
      5218      5217      5220      5223      5219      5217      5220      5221
      5219      5217      5220      5222      5219      5217      5220      5223
      5221      5220      5223      5224      5221      5220      5223      5225
      5221      5220      5223      5226      5222      5220      5223      5224
      5222      5220      5223      5225      5222      5220      5223      5226
      5227      5228      5243      5244      5227      5228      5243      5245
      5227      5228      5243      5249      5228      5227      5231      5232
      5228      5227      5231      5233      5228      5227      5231      5234
      5228      5227      5235      5236      5228      5227      5235      5237
      5228      5227      5235      5238      5228      5227      5239      5240
      5228      5227      5239      5241      5228      5227      5239      5242
      5228      5243      5249      5246      5229      5228      5227      5231
      5229      5228      5227      5235      5229      5228      5227      5239
      5229      5228      5243      5244      5229      5228      5243      5245
      5229      5228      5243      5249      5230      5228      5227      5231
      5230      5228      5227      5235      5230      5228      5227      5239
      5230      5228      5243      5244      5230      5228      5243      5245
      5230      5228      5243      5249      5231      5227      5228      5243
      5231      5227      5235      5236      5231      5227      5235      5237
      5231      5227      5235      5238      5231      5227      5239      5240
      5231      5227      5239      5241      5231      5227      5239      5242
      5232      5231      5227      5235      5232      5231      5227      5239
      5233      5231      5227      5235      5233      5231      5227      5239
      5234      5231      5227      5235      5234      5231      5227      5239
      5235      5227      5228      5243      5235      5227      5239      5240
      5235      5227      5239      5241      5235      5227      5239      5242
      5236      5235      5227      5239      5237      5235      5227      5239
      5238      5235      5227      5239      5239      5227      5228      5243
      5243      5249      5246      5247      5243      5249      5246      5248
      5243      5249      5246      5250      5244      5243      5249      5246
      5245      5243      5249      5246      5246      5250      5251      5252
      5246      5250      5251      5253      5246      5250      5251      5254
      5247      5246      5250      5251      5248      5246      5250      5251
      5249      5246      5250      5251      5250      5251      5254      5255
      5250      5251      5254      5256      5250      5251      5254      5262
      5251      5254      5256      5257      5251      5254      5262      5263
      5251      5254      5262      5264      5251      5254      5262      5265
      5252      5251      5254      5255      5252      5251      5254      5256
      5252      5251      5254      5262      5253      5251      5254      5255
      5253      5251      5254      5256      5253      5251      5254      5262
      5254      5256      5257      5258      5254      5256      5257      5259
      5254      5262      5265      5266      5255      5254      5256      5257
      5255      5254      5262      5263      5255      5254      5262      5264
      5255      5254      5262      5265      5256      5254      5262      5263
      5256      5254      5262      5264      5256      5254      5262      5265
      5256      5257      5259      5260      5256      5257      5259      5261
      5256      5257      5259      5271      5257      5256      5254      5262
      5257      5259      5271      5272      5257      5259      5271      5273
      5257      5259      5271      5274      5258      5257      5259      5260
      5258      5257      5259      5261      5258      5257      5259      5271
      5259      5271      5274      5275      5259      5271      5274      5276
      5259      5271      5274      5277      5260      5259      5271      5272
      5260      5259      5271      5273      5260      5259      5271      5274
      5261      5259      5271      5272      5261      5259      5271      5273
      5261      5259      5271      5274      5262      5265      5266      5267
      5262      5265      5266      5268      5263      5262      5265      5266
      5264      5262      5265      5266      5265      5266      5268      5269
      5265      5266      5268      5270      5265      5266      5268      5318
      5266      5268      5318      5319      5266      5268      5318      5320
      5266      5268      5318      5321      5267      5266      5268      5269
      5267      5266      5268      5270      5267      5266      5268      5318
      5268      5318      5321      5322      5268      5318      5321      5323
      5268      5318      5321      5324      5269      5268      5318      5319
      5269      5268      5318      5320      5269      5268      5318      5321
      5270      5268      5318      5319      5270      5268      5318      5320
      5270      5268      5318      5321      5271      5274      5277      5278
      5271      5274      5277      5279      5271      5274      5277      5280
      5272      5271      5274      5275      5272      5271      5274      5276
      5272      5271      5274      5277      5273      5271      5274      5275
      5273      5271      5274      5276      5273      5271      5274      5277
      5274      5277      5280      5281      5274      5277      5280      5282
      5274      5277      5280      5283      5275      5274      5277      5278
      5275      5274      5277      5279      5275      5274      5277      5280
      5276      5274      5277      5278      5276      5274      5277      5279
      5276      5274      5277      5280      5277      5280      5283      5284
      5277      5280      5283      5285      5277      5280      5283      5286
      5278      5277      5280      5281      5278      5277      5280      5282
      5278      5277      5280      5283      5279      5277      5280      5281
      5279      5277      5280      5282      5279      5277      5280      5283
      5280      5283      5286      5287      5280      5283      5286      5288
      5280      5283      5286      5289      5281      5280      5283      5284
      5281      5280      5283      5285      5281      5280      5283      5286
      5282      5280      5283      5284      5282      5280      5283      5285
      5282      5280      5283      5286      5283      5286      5289      5290
      5283      5286      5289      5291      5284      5283      5286      5287
      5284      5283      5286      5288      5284      5283      5286      5289
      5285      5283      5286      5287      5285      5283      5286      5288
      5285      5283      5286      5289      5286      5289      5291      5292
      5286      5289      5291      5293      5287      5286      5289      5290
      5287      5286      5289      5291      5288      5286      5289      5290
      5288      5286      5289      5291      5289      5291      5293      5294
      5289      5291      5293      5295      5289      5291      5293      5296
      5290      5289      5291      5292      5290      5289      5291      5293
      5291      5293      5296      5297      5291      5293      5296      5298
      5291      5293      5296      5299      5292      5291      5293      5294
      5292      5291      5293      5295      5292      5291      5293      5296
      5293      5296      5299      5300      5293      5296      5299      5301
      5293      5296      5299      5302      5294      5293      5296      5297
      5294      5293      5296      5298      5294      5293      5296      5299
      5295      5293      5296      5297      5295      5293      5296      5298
      5295      5293      5296      5299      5296      5299      5302      5303
      5296      5299      5302      5304      5296      5299      5302      5305
      5297      5296      5299      5300      5297      5296      5299      5301
      5297      5296      5299      5302      5298      5296      5299      5300
      5298      5296      5299      5301      5298      5296      5299      5302
      5299      5302      5305      5306      5299      5302      5305      5307
      5299      5302      5305      5308      5300      5299      5302      5303
      5300      5299      5302      5304      5300      5299      5302      5305
      5301      5299      5302      5303      5301      5299      5302      5304
      5301      5299      5302      5305      5302      5305      5308      5309
      5302      5305      5308      5310      5302      5305      5308      5311
      5303      5302      5305      5306      5303      5302      5305      5307
      5303      5302      5305      5308      5304      5302      5305      5306
      5304      5302      5305      5307      5304      5302      5305      5308
      5305      5308      5311      5312      5305      5308      5311      5313
      5305      5308      5311      5314      5306      5305      5308      5309
      5306      5305      5308      5310      5306      5305      5308      5311
      5307      5305      5308      5309      5307      5305      5308      5310
      5307      5305      5308      5311      5308      5311      5314      5315
      5308      5311      5314      5316      5308      5311      5314      5317
      5309      5308      5311      5312      5309      5308      5311      5313
      5309      5308      5311      5314      5310      5308      5311      5312
      5310      5308      5311      5313      5310      5308      5311      5314
      5312      5311      5314      5315      5312      5311      5314      5316
      5312      5311      5314      5317      5313      5311      5314      5315
      5313      5311      5314      5316      5313      5311      5314      5317
      5318      5321      5324      5325      5318      5321      5324      5326
      5318      5321      5324      5327      5319      5318      5321      5322
      5319      5318      5321      5323      5319      5318      5321      5324
      5320      5318      5321      5322      5320      5318      5321      5323
      5320      5318      5321      5324      5321      5324      5327      5328
      5321      5324      5327      5329      5321      5324      5327      5330
      5322      5321      5324      5325      5322      5321      5324      5326
      5322      5321      5324      5327      5323      5321      5324      5325
      5323      5321      5324      5326      5323      5321      5324      5327
      5324      5327      5330      5331      5324      5327      5330      5332
      5324      5327      5330      5333      5325      5324      5327      5328
      5325      5324      5327      5329      5325      5324      5327      5330
      5326      5324      5327      5328      5326      5324      5327      5329
      5326      5324      5327      5330      5327      5330      5333      5334
      5327      5330      5333      5335      5327      5330      5333      5336
      5328      5327      5330      5331      5328      5327      5330      5332
      5328      5327      5330      5333      5329      5327      5330      5331
      5329      5327      5330      5332      5329      5327      5330      5333
      5330      5333      5336      5337      5330      5333      5336      5338
      5330      5333      5336      5339      5331      5330      5333      5334
      5331      5330      5333      5335      5331      5330      5333      5336
      5332      5330      5333      5334      5332      5330      5333      5335
      5332      5330      5333      5336      5333      5336      5339      5340
      5333      5336      5339      5341      5333      5336      5339      5342
      5334      5333      5336      5337      5334      5333      5336      5338
      5334      5333      5336      5339      5335      5333      5336      5337
      5335      5333      5336      5338      5335      5333      5336      5339
      5336      5339      5342      5343      5336      5339      5342      5344
      5336      5339      5342      5345      5337      5336      5339      5340
      5337      5336      5339      5341      5337      5336      5339      5342
      5338      5336      5339      5340      5338      5336      5339      5341
      5338      5336      5339      5342      5339      5342      5345      5346
      5339      5342      5345      5347      5339      5342      5345      5348
      5340      5339      5342      5343      5340      5339      5342      5344
      5340      5339      5342      5345      5341      5339      5342      5343
      5341      5339      5342      5344      5341      5339      5342      5345
      5342      5345      5348      5349      5342      5345      5348      5350
      5342      5345      5348      5351      5343      5342      5345      5346
      5343      5342      5345      5347      5343      5342      5345      5348
      5344      5342      5345      5346      5344      5342      5345      5347
      5344      5342      5345      5348      5345      5348      5351      5352
      5345      5348      5351      5353      5345      5348      5351      5354
      5346      5345      5348      5349      5346      5345      5348      5350
      5346      5345      5348      5351      5347      5345      5348      5349
      5347      5345      5348      5350      5347      5345      5348      5351
      5348      5351      5354      5355      5348      5351      5354      5356
      5348      5351      5354      5357      5349      5348      5351      5352
      5349      5348      5351      5353      5349      5348      5351      5354
      5350      5348      5351      5352      5350      5348      5351      5353
      5350      5348      5351      5354      5351      5354      5357      5358
      5351      5354      5357      5359      5351      5354      5357      5360
      5352      5351      5354      5355      5352      5351      5354      5356
      5352      5351      5354      5357      5353      5351      5354      5355
      5353      5351      5354      5356      5353      5351      5354      5357
      5355      5354      5357      5358      5355      5354      5357      5359
      5355      5354      5357      5360      5356      5354      5357      5358
      5356      5354      5357      5359      5356      5354      5357      5360
      5361      5362      5377      5378      5361      5362      5377      5379
      5361      5362      5377      5383      5362      5361      5365      5366
      5362      5361      5365      5367      5362      5361      5365      5368
      5362      5361      5369      5370      5362      5361      5369      5371
      5362      5361      5369      5372      5362      5361      5373      5374
      5362      5361      5373      5375      5362      5361      5373      5376
      5362      5377      5383      5380      5363      5362      5361      5365
      5363      5362      5361      5369      5363      5362      5361      5373
      5363      5362      5377      5378      5363      5362      5377      5379
      5363      5362      5377      5383      5364      5362      5361      5365
      5364      5362      5361      5369      5364      5362      5361      5373
      5364      5362      5377      5378      5364      5362      5377      5379
      5364      5362      5377      5383      5365      5361      5362      5377
      5365      5361      5369      5370      5365      5361      5369      5371
      5365      5361      5369      5372      5365      5361      5373      5374
      5365      5361      5373      5375      5365      5361      5373      5376
      5366      5365      5361      5369      5366      5365      5361      5373
      5367      5365      5361      5369      5367      5365      5361      5373
      5368      5365      5361      5369      5368      5365      5361      5373
      5369      5361      5362      5377      5369      5361      5373      5374
      5369      5361      5373      5375      5369      5361      5373      5376
      5370      5369      5361      5373      5371      5369      5361      5373
      5372      5369      5361      5373      5373      5361      5362      5377
      5377      5383      5380      5381      5377      5383      5380      5382
      5377      5383      5380      5384      5378      5377      5383      5380
      5379      5377      5383      5380      5380      5384      5385      5386
      5380      5384      5385      5387      5380      5384      5385      5388
      5381      5380      5384      5385      5382      5380      5384      5385
      5383      5380      5384      5385      5384      5385      5388      5389
      5384      5385      5388      5390      5384      5385      5388      5396
      5385      5388      5390      5391      5385      5388      5396      5397
      5385      5388      5396      5398      5385      5388      5396      5399
      5386      5385      5388      5389      5386      5385      5388      5390
      5386      5385      5388      5396      5387      5385      5388      5389
      5387      5385      5388      5390      5387      5385      5388      5396
      5388      5390      5391      5392      5388      5390      5391      5393
      5388      5396      5399      5400      5389      5388      5390      5391
      5389      5388      5396      5397      5389      5388      5396      5398
      5389      5388      5396      5399      5390      5388      5396      5397
      5390      5388      5396      5398      5390      5388      5396      5399
      5390      5391      5393      5394      5390      5391      5393      5395
      5390      5391      5393      5405      5391      5390      5388      5396
      5391      5393      5405      5406      5391      5393      5405      5407
      5391      5393      5405      5408      5392      5391      5393      5394
      5392      5391      5393      5395      5392      5391      5393      5405
      5393      5405      5408      5409      5393      5405      5408      5410
      5393      5405      5408      5411      5394      5393      5405      5406
      5394      5393      5405      5407      5394      5393      5405      5408
      5395      5393      5405      5406      5395      5393      5405      5407
      5395      5393      5405      5408      5396      5399      5400      5401
      5396      5399      5400      5402      5397      5396      5399      5400
      5398      5396      5399      5400      5399      5400      5402      5403
      5399      5400      5402      5404      5399      5400      5402      5452
      5400      5402      5452      5453      5400      5402      5452      5454
      5400      5402      5452      5455      5401      5400      5402      5403
      5401      5400      5402      5404      5401      5400      5402      5452
      5402      5452      5455      5456      5402      5452      5455      5457
      5402      5452      5455      5458      5403      5402      5452      5453
      5403      5402      5452      5454      5403      5402      5452      5455
      5404      5402      5452      5453      5404      5402      5452      5454
      5404      5402      5452      5455      5405      5408      5411      5412
      5405      5408      5411      5413      5405      5408      5411      5414
      5406      5405      5408      5409      5406      5405      5408      5410
      5406      5405      5408      5411      5407      5405      5408      5409
      5407      5405      5408      5410      5407      5405      5408      5411
      5408      5411      5414      5415      5408      5411      5414      5416
      5408      5411      5414      5417      5409      5408      5411      5412
      5409      5408      5411      5413      5409      5408      5411      5414
      5410      5408      5411      5412      5410      5408      5411      5413
      5410      5408      5411      5414      5411      5414      5417      5418
      5411      5414      5417      5419      5411      5414      5417      5420
      5412      5411      5414      5415      5412      5411      5414      5416
      5412      5411      5414      5417      5413      5411      5414      5415
      5413      5411      5414      5416      5413      5411      5414      5417
      5414      5417      5420      5421      5414      5417      5420      5422
      5414      5417      5420      5423      5415      5414      5417      5418
      5415      5414      5417      5419      5415      5414      5417      5420
      5416      5414      5417      5418      5416      5414      5417      5419
      5416      5414      5417      5420      5417      5420      5423      5424
      5417      5420      5423      5425      5418      5417      5420      5421
      5418      5417      5420      5422      5418      5417      5420      5423
      5419      5417      5420      5421      5419      5417      5420      5422
      5419      5417      5420      5423      5420      5423      5425      5426
      5420      5423      5425      5427      5421      5420      5423      5424
      5421      5420      5423      5425      5422      5420      5423      5424
      5422      5420      5423      5425      5423      5425      5427      5428
      5423      5425      5427      5429      5423      5425      5427      5430
      5424      5423      5425      5426      5424      5423      5425      5427
      5425      5427      5430      5431      5425      5427      5430      5432
      5425      5427      5430      5433      5426      5425      5427      5428
      5426      5425      5427      5429      5426      5425      5427      5430
      5427      5430      5433      5434      5427      5430      5433      5435
      5427      5430      5433      5436      5428      5427      5430      5431
      5428      5427      5430      5432      5428      5427      5430      5433
      5429      5427      5430      5431      5429      5427      5430      5432
      5429      5427      5430      5433      5430      5433      5436      5437
      5430      5433      5436      5438      5430      5433      5436      5439
      5431      5430      5433      5434      5431      5430      5433      5435
      5431      5430      5433      5436      5432      5430      5433      5434
      5432      5430      5433      5435      5432      5430      5433      5436
      5433      5436      5439      5440      5433      5436      5439      5441
      5433      5436      5439      5442      5434      5433      5436      5437
      5434      5433      5436      5438      5434      5433      5436      5439
      5435      5433      5436      5437      5435      5433      5436      5438
      5435      5433      5436      5439      5436      5439      5442      5443
      5436      5439      5442      5444      5436      5439      5442      5445
      5437      5436      5439      5440      5437      5436      5439      5441
      5437      5436      5439      5442      5438      5436      5439      5440
      5438      5436      5439      5441      5438      5436      5439      5442
      5439      5442      5445      5446      5439      5442      5445      5447
      5439      5442      5445      5448      5440      5439      5442      5443
      5440      5439      5442      5444      5440      5439      5442      5445
      5441      5439      5442      5443      5441      5439      5442      5444
      5441      5439      5442      5445      5442      5445      5448      5449
      5442      5445      5448      5450      5442      5445      5448      5451
      5443      5442      5445      5446      5443      5442      5445      5447
      5443      5442      5445      5448      5444      5442      5445      5446
      5444      5442      5445      5447      5444      5442      5445      5448
      5446      5445      5448      5449      5446      5445      5448      5450
      5446      5445      5448      5451      5447      5445      5448      5449
      5447      5445      5448      5450      5447      5445      5448      5451
      5452      5455      5458      5459      5452      5455      5458      5460
      5452      5455      5458      5461      5453      5452      5455      5456
      5453      5452      5455      5457      5453      5452      5455      5458
      5454      5452      5455      5456      5454      5452      5455      5457
      5454      5452      5455      5458      5455      5458      5461      5462
      5455      5458      5461      5463      5455      5458      5461      5464
      5456      5455      5458      5459      5456      5455      5458      5460
      5456      5455      5458      5461      5457      5455      5458      5459
      5457      5455      5458      5460      5457      5455      5458      5461
      5458      5461      5464      5465      5458      5461      5464      5466
      5458      5461      5464      5467      5459      5458      5461      5462
      5459      5458      5461      5463      5459      5458      5461      5464
      5460      5458      5461      5462      5460      5458      5461      5463
      5460      5458      5461      5464      5461      5464      5467      5468
      5461      5464      5467      5469      5461      5464      5467      5470
      5462      5461      5464      5465      5462      5461      5464      5466
      5462      5461      5464      5467      5463      5461      5464      5465
      5463      5461      5464      5466      5463      5461      5464      5467
      5464      5467      5470      5471      5464      5467      5470      5472
      5464      5467      5470      5473      5465      5464      5467      5468
      5465      5464      5467      5469      5465      5464      5467      5470
      5466      5464      5467      5468      5466      5464      5467      5469
      5466      5464      5467      5470      5467      5470      5473      5474
      5467      5470      5473      5475      5467      5470      5473      5476
      5468      5467      5470      5471      5468      5467      5470      5472
      5468      5467      5470      5473      5469      5467      5470      5471
      5469      5467      5470      5472      5469      5467      5470      5473
      5470      5473      5476      5477      5470      5473      5476      5478
      5470      5473      5476      5479      5471      5470      5473      5474
      5471      5470      5473      5475      5471      5470      5473      5476
      5472      5470      5473      5474      5472      5470      5473      5475
      5472      5470      5473      5476      5473      5476      5479      5480
      5473      5476      5479      5481      5473      5476      5479      5482
      5474      5473      5476      5477      5474      5473      5476      5478
      5474      5473      5476      5479      5475      5473      5476      5477
      5475      5473      5476      5478      5475      5473      5476      5479
      5476      5479      5482      5483      5476      5479      5482      5484
      5476      5479      5482      5485      5477      5476      5479      5480
      5477      5476      5479      5481      5477      5476      5479      5482
      5478      5476      5479      5480      5478      5476      5479      5481
      5478      5476      5479      5482      5479      5482      5485      5486
      5479      5482      5485      5487      5479      5482      5485      5488
      5480      5479      5482      5483      5480      5479      5482      5484
      5480      5479      5482      5485      5481      5479      5482      5483
      5481      5479      5482      5484      5481      5479      5482      5485
      5482      5485      5488      5489      5482      5485      5488      5490
      5482      5485      5488      5491      5483      5482      5485      5486
      5483      5482      5485      5487      5483      5482      5485      5488
      5484      5482      5485      5486      5484      5482      5485      5487
      5484      5482      5485      5488      5485      5488      5491      5492
      5485      5488      5491      5493      5485      5488      5491      5494
      5486      5485      5488      5489      5486      5485      5488      5490
      5486      5485      5488      5491      5487      5485      5488      5489
      5487      5485      5488      5490      5487      5485      5488      5491
      5489      5488      5491      5492      5489      5488      5491      5493
      5489      5488      5491      5494      5490      5488      5491      5492
      5490      5488      5491      5493      5490      5488      5491      5494
      5495      5496      5511      5512      5495      5496      5511      5513
      5495      5496      5511      5517      5496      5495      5499      5500
      5496      5495      5499      5501      5496      5495      5499      5502
      5496      5495      5503      5504      5496      5495      5503      5505
      5496      5495      5503      5506      5496      5495      5507      5508
      5496      5495      5507      5509      5496      5495      5507      5510
      5496      5511      5517      5514      5497      5496      5495      5499
      5497      5496      5495      5503      5497      5496      5495      5507
      5497      5496      5511      5512      5497      5496      5511      5513
      5497      5496      5511      5517      5498      5496      5495      5499
      5498      5496      5495      5503      5498      5496      5495      5507
      5498      5496      5511      5512      5498      5496      5511      5513
      5498      5496      5511      5517      5499      5495      5496      5511
      5499      5495      5503      5504      5499      5495      5503      5505
      5499      5495      5503      5506      5499      5495      5507      5508
      5499      5495      5507      5509      5499      5495      5507      5510
      5500      5499      5495      5503      5500      5499      5495      5507
      5501      5499      5495      5503      5501      5499      5495      5507
      5502      5499      5495      5503      5502      5499      5495      5507
      5503      5495      5496      5511      5503      5495      5507      5508
      5503      5495      5507      5509      5503      5495      5507      5510
      5504      5503      5495      5507      5505      5503      5495      5507
      5506      5503      5495      5507      5507      5495      5496      5511
      5511      5517      5514      5515      5511      5517      5514      5516
      5511      5517      5514      5518      5512      5511      5517      5514
      5513      5511      5517      5514      5514      5518      5519      5520
      5514      5518      5519      5521      5514      5518      5519      5522
      5515      5514      5518      5519      5516      5514      5518      5519
      5517      5514      5518      5519      5518      5519      5522      5523
      5518      5519      5522      5524      5518      5519      5522      5530
      5519      5522      5524      5525      5519      5522      5530      5531
      5519      5522      5530      5532      5519      5522      5530      5533
      5520      5519      5522      5523      5520      5519      5522      5524
      5520      5519      5522      5530      5521      5519      5522      5523
      5521      5519      5522      5524      5521      5519      5522      5530
      5522      5524      5525      5526      5522      5524      5525      5527
      5522      5530      5533      5534      5523      5522      5524      5525
      5523      5522      5530      5531      5523      5522      5530      5532
      5523      5522      5530      5533      5524      5522      5530      5531
      5524      5522      5530      5532      5524      5522      5530      5533
      5524      5525      5527      5528      5524      5525      5527      5529
      5524      5525      5527      5539      5525      5524      5522      5530
      5525      5527      5539      5540      5525      5527      5539      5541
      5525      5527      5539      5542      5526      5525      5527      5528
      5526      5525      5527      5529      5526      5525      5527      5539
      5527      5539      5542      5543      5527      5539      5542      5544
      5527      5539      5542      5545      5528      5527      5539      5540
      5528      5527      5539      5541      5528      5527      5539      5542
      5529      5527      5539      5540      5529      5527      5539      5541
      5529      5527      5539      5542      5530      5533      5534      5535
      5530      5533      5534      5536      5531      5530      5533      5534
      5532      5530      5533      5534      5533      5534      5536      5537
      5533      5534      5536      5538      5533      5534      5536      5586
      5534      5536      5586      5587      5534      5536      5586      5588
      5534      5536      5586      5589      5535      5534      5536      5537
      5535      5534      5536      5538      5535      5534      5536      5586
      5536      5586      5589      5590      5536      5586      5589      5591
      5536      5586      5589      5592      5537      5536      5586      5587
      5537      5536      5586      5588      5537      5536      5586      5589
      5538      5536      5586      5587      5538      5536      5586      5588
      5538      5536      5586      5589      5539      5542      5545      5546
      5539      5542      5545      5547      5539      5542      5545      5548
      5540      5539      5542      5543      5540      5539      5542      5544
      5540      5539      5542      5545      5541      5539      5542      5543
      5541      5539      5542      5544      5541      5539      5542      5545
      5542      5545      5548      5549      5542      5545      5548      5550
      5542      5545      5548      5551      5543      5542      5545      5546
      5543      5542      5545      5547      5543      5542      5545      5548
      5544      5542      5545      5546      5544      5542      5545      5547
      5544      5542      5545      5548      5545      5548      5551      5552
      5545      5548      5551      5553      5545      5548      5551      5554
      5546      5545      5548      5549      5546      5545      5548      5550
      5546      5545      5548      5551      5547      5545      5548      5549
      5547      5545      5548      5550      5547      5545      5548      5551
      5548      5551      5554      5555      5548      5551      5554      5556
      5548      5551      5554      5557      5549      5548      5551      5552
      5549      5548      5551      5553      5549      5548      5551      5554
      5550      5548      5551      5552      5550      5548      5551      5553
      5550      5548      5551      5554      5551      5554      5557      5558
      5551      5554      5557      5559      5552      5551      5554      5555
      5552      5551      5554      5556      5552      5551      5554      5557
      5553      5551      5554      5555      5553      5551      5554      5556
      5553      5551      5554      5557      5554      5557      5559      5560
      5554      5557      5559      5561      5555      5554      5557      5558
      5555      5554      5557      5559      5556      5554      5557      5558
      5556      5554      5557      5559      5557      5559      5561      5562
      5557      5559      5561      5563      5557      5559      5561      5564
      5558      5557      5559      5560      5558      5557      5559      5561
      5559      5561      5564      5565      5559      5561      5564      5566
      5559      5561      5564      5567      5560      5559      5561      5562
      5560      5559      5561      5563      5560      5559      5561      5564
      5561      5564      5567      5568      5561      5564      5567      5569
      5561      5564      5567      5570      5562      5561      5564      5565
      5562      5561      5564      5566      5562      5561      5564      5567
      5563      5561      5564      5565      5563      5561      5564      5566
      5563      5561      5564      5567      5564      5567      5570      5571
      5564      5567      5570      5572      5564      5567      5570      5573
      5565      5564      5567      5568      5565      5564      5567      5569
      5565      5564      5567      5570      5566      5564      5567      5568
      5566      5564      5567      5569      5566      5564      5567      5570
      5567      5570      5573      5574      5567      5570      5573      5575
      5567      5570      5573      5576      5568      5567      5570      5571
      5568      5567      5570      5572      5568      5567      5570      5573
      5569      5567      5570      5571      5569      5567      5570      5572
      5569      5567      5570      5573      5570      5573      5576      5577
      5570      5573      5576      5578      5570      5573      5576      5579
      5571      5570      5573      5574      5571      5570      5573      5575
      5571      5570      5573      5576      5572      5570      5573      5574
      5572      5570      5573      5575      5572      5570      5573      5576
      5573      5576      5579      5580      5573      5576      5579      5581
      5573      5576      5579      5582      5574      5573      5576      5577
      5574      5573      5576      5578      5574      5573      5576      5579
      5575      5573      5576      5577      5575      5573      5576      5578
      5575      5573      5576      5579      5576      5579      5582      5583
      5576      5579      5582      5584      5576      5579      5582      5585
      5577      5576      5579      5580      5577      5576      5579      5581
      5577      5576      5579      5582      5578      5576      5579      5580
      5578      5576      5579      5581      5578      5576      5579      5582
      5580      5579      5582      5583      5580      5579      5582      5584
      5580      5579      5582      5585      5581      5579      5582      5583
      5581      5579      5582      5584      5581      5579      5582      5585
      5586      5589      5592      5593      5586      5589      5592      5594
      5586      5589      5592      5595      5587      5586      5589      5590
      5587      5586      5589      5591      5587      5586      5589      5592
      5588      5586      5589      5590      5588      5586      5589      5591
      5588      5586      5589      5592      5589      5592      5595      5596
      5589      5592      5595      5597      5589      5592      5595      5598
      5590      5589      5592      5593      5590      5589      5592      5594
      5590      5589      5592      5595      5591      5589      5592      5593
      5591      5589      5592      5594      5591      5589      5592      5595
      5592      5595      5598      5599      5592      5595      5598      5600
      5592      5595      5598      5601      5593      5592      5595      5596
      5593      5592      5595      5597      5593      5592      5595      5598
      5594      5592      5595      5596      5594      5592      5595      5597
      5594      5592      5595      5598      5595      5598      5601      5602
      5595      5598      5601      5603      5595      5598      5601      5604
      5596      5595      5598      5599      5596      5595      5598      5600
      5596      5595      5598      5601      5597      5595      5598      5599
      5597      5595      5598      5600      5597      5595      5598      5601
      5598      5601      5604      5605      5598      5601      5604      5606
      5598      5601      5604      5607      5599      5598      5601      5602
      5599      5598      5601      5603      5599      5598      5601      5604
      5600      5598      5601      5602      5600      5598      5601      5603
      5600      5598      5601      5604      5601      5604      5607      5608
      5601      5604      5607      5609      5601      5604      5607      5610
      5602      5601      5604      5605      5602      5601      5604      5606
      5602      5601      5604      5607      5603      5601      5604      5605
      5603      5601      5604      5606      5603      5601      5604      5607
      5604      5607      5610      5611      5604      5607      5610      5612
      5604      5607      5610      5613      5605      5604      5607      5608
      5605      5604      5607      5609      5605      5604      5607      5610
      5606      5604      5607      5608      5606      5604      5607      5609
      5606      5604      5607      5610      5607      5610      5613      5614
      5607      5610      5613      5615      5607      5610      5613      5616
      5608      5607      5610      5611      5608      5607      5610      5612
      5608      5607      5610      5613      5609      5607      5610      5611
      5609      5607      5610      5612      5609      5607      5610      5613
      5610      5613      5616      5617      5610      5613      5616      5618
      5610      5613      5616      5619      5611      5610      5613      5614
      5611      5610      5613      5615      5611      5610      5613      5616
      5612      5610      5613      5614      5612      5610      5613      5615
      5612      5610      5613      5616      5613      5616      5619      5620
      5613      5616      5619      5621      5613      5616      5619      5622
      5614      5613      5616      5617      5614      5613      5616      5618
      5614      5613      5616      5619      5615      5613      5616      5617
      5615      5613      5616      5618      5615      5613      5616      5619
      5616      5619      5622      5623      5616      5619      5622      5624
      5616      5619      5622      5625      5617      5616      5619      5620
      5617      5616      5619      5621      5617      5616      5619      5622
      5618      5616      5619      5620      5618      5616      5619      5621
      5618      5616      5619      5622      5619      5622      5625      5626
      5619      5622      5625      5627      5619      5622      5625      5628
      5620      5619      5622      5623      5620      5619      5622      5624
      5620      5619      5622      5625      5621      5619      5622      5623
      5621      5619      5622      5624      5621      5619      5622      5625
      5623      5622      5625      5626      5623      5622      5625      5627
      5623      5622      5625      5628      5624      5622      5625      5626
      5624      5622      5625      5627      5624      5622      5625      5628
      5629      5630      5645      5646      5629      5630      5645      5647
      5629      5630      5645      5651      5630      5629      5633      5634
      5630      5629      5633      5635      5630      5629      5633      5636
      5630      5629      5637      5638      5630      5629      5637      5639
      5630      5629      5637      5640      5630      5629      5641      5642
      5630      5629      5641      5643      5630      5629      5641      5644
      5630      5645      5651      5648      5631      5630      5629      5633
      5631      5630      5629      5637      5631      5630      5629      5641
      5631      5630      5645      5646      5631      5630      5645      5647
      5631      5630      5645      5651      5632      5630      5629      5633
      5632      5630      5629      5637      5632      5630      5629      5641
      5632      5630      5645      5646      5632      5630      5645      5647
      5632      5630      5645      5651      5633      5629      5630      5645
      5633      5629      5637      5638      5633      5629      5637      5639
      5633      5629      5637      5640      5633      5629      5641      5642
      5633      5629      5641      5643      5633      5629      5641      5644
      5634      5633      5629      5637      5634      5633      5629      5641
      5635      5633      5629      5637      5635      5633      5629      5641
      5636      5633      5629      5637      5636      5633      5629      5641
      5637      5629      5630      5645      5637      5629      5641      5642
      5637      5629      5641      5643      5637      5629      5641      5644
      5638      5637      5629      5641      5639      5637      5629      5641
      5640      5637      5629      5641      5641      5629      5630      5645
      5645      5651      5648      5649      5645      5651      5648      5650
      5645      5651      5648      5652      5646      5645      5651      5648
      5647      5645      5651      5648      5648      5652      5653      5654
      5648      5652      5653      5655      5648      5652      5653      5656
      5649      5648      5652      5653      5650      5648      5652      5653
      5651      5648      5652      5653      5652      5653      5656      5657
      5652      5653      5656      5658      5652      5653      5656      5664
      5653      5656      5658      5659      5653      5656      5664      5665
      5653      5656      5664      5666      5653      5656      5664      5667
      5654      5653      5656      5657      5654      5653      5656      5658
      5654      5653      5656      5664      5655      5653      5656      5657
      5655      5653      5656      5658      5655      5653      5656      5664
      5656      5658      5659      5660      5656      5658      5659      5661
      5656      5664      5667      5668      5657      5656      5658      5659
      5657      5656      5664      5665      5657      5656      5664      5666
      5657      5656      5664      5667      5658      5656      5664      5665
      5658      5656      5664      5666      5658      5656      5664      5667
      5658      5659      5661      5662      5658      5659      5661      5663
      5658      5659      5661      5673      5659      5658      5656      5664
      5659      5661      5673      5674      5659      5661      5673      5675
      5659      5661      5673      5676      5660      5659      5661      5662
      5660      5659      5661      5663      5660      5659      5661      5673
      5661      5673      5676      5677      5661      5673      5676      5678
      5661      5673      5676      5679      5662      5661      5673      5674
      5662      5661      5673      5675      5662      5661      5673      5676
      5663      5661      5673      5674      5663      5661      5673      5675
      5663      5661      5673      5676      5664      5667      5668      5669
      5664      5667      5668      5670      5665      5664      5667      5668
      5666      5664      5667      5668      5667      5668      5670      5671
      5667      5668      5670      5672      5667      5668      5670      5720
      5668      5670      5720      5721      5668      5670      5720      5722
      5668      5670      5720      5723      5669      5668      5670      5671
      5669      5668      5670      5672      5669      5668      5670      5720
      5670      5720      5723      5724      5670      5720      5723      5725
      5670      5720      5723      5726      5671      5670      5720      5721
      5671      5670      5720      5722      5671      5670      5720      5723
      5672      5670      5720      5721      5672      5670      5720      5722
      5672      5670      5720      5723      5673      5676      5679      5680
      5673      5676      5679      5681      5673      5676      5679      5682
      5674      5673      5676      5677      5674      5673      5676      5678
      5674      5673      5676      5679      5675      5673      5676      5677
      5675      5673      5676      5678      5675      5673      5676      5679
      5676      5679      5682      5683      5676      5679      5682      5684
      5676      5679      5682      5685      5677      5676      5679      5680
      5677      5676      5679      5681      5677      5676      5679      5682
      5678      5676      5679      5680      5678      5676      5679      5681
      5678      5676      5679      5682      5679      5682      5685      5686
      5679      5682      5685      5687      5679      5682      5685      5688
      5680      5679      5682      5683      5680      5679      5682      5684
      5680      5679      5682      5685      5681      5679      5682      5683
      5681      5679      5682      5684      5681      5679      5682      5685
      5682      5685      5688      5689      5682      5685      5688      5690
      5682      5685      5688      5691      5683      5682      5685      5686
      5683      5682      5685      5687      5683      5682      5685      5688
      5684      5682      5685      5686      5684      5682      5685      5687
      5684      5682      5685      5688      5685      5688      5691      5692
      5685      5688      5691      5693      5686      5685      5688      5689
      5686      5685      5688      5690      5686      5685      5688      5691
      5687      5685      5688      5689      5687      5685      5688      5690
      5687      5685      5688      5691      5688      5691      5693      5694
      5688      5691      5693      5695      5689      5688      5691      5692
      5689      5688      5691      5693      5690      5688      5691      5692
      5690      5688      5691      5693      5691      5693      5695      5696
      5691      5693      5695      5697      5691      5693      5695      5698
      5692      5691      5693      5694      5692      5691      5693      5695
      5693      5695      5698      5699      5693      5695      5698      5700
      5693      5695      5698      5701      5694      5693      5695      5696
      5694      5693      5695      5697      5694      5693      5695      5698
      5695      5698      5701      5702      5695      5698      5701      5703
      5695      5698      5701      5704      5696      5695      5698      5699
      5696      5695      5698      5700      5696      5695      5698      5701
      5697      5695      5698      5699      5697      5695      5698      5700
      5697      5695      5698      5701      5698      5701      5704      5705
      5698      5701      5704      5706      5698      5701      5704      5707
      5699      5698      5701      5702      5699      5698      5701      5703
      5699      5698      5701      5704      5700      5698      5701      5702
      5700      5698      5701      5703      5700      5698      5701      5704
      5701      5704      5707      5708      5701      5704      5707      5709
      5701      5704      5707      5710      5702      5701      5704      5705
      5702      5701      5704      5706      5702      5701      5704      5707
      5703      5701      5704      5705      5703      5701      5704      5706
      5703      5701      5704      5707      5704      5707      5710      5711
      5704      5707      5710      5712      5704      5707      5710      5713
      5705      5704      5707      5708      5705      5704      5707      5709
      5705      5704      5707      5710      5706      5704      5707      5708
      5706      5704      5707      5709      5706      5704      5707      5710
      5707      5710      5713      5714      5707      5710      5713      5715
      5707      5710      5713      5716      5708      5707      5710      5711
      5708      5707      5710      5712      5708      5707      5710      5713
      5709      5707      5710      5711      5709      5707      5710      5712
      5709      5707      5710      5713      5710      5713      5716      5717
      5710      5713      5716      5718      5710      5713      5716      5719
      5711      5710      5713      5714      5711      5710      5713      5715
      5711      5710      5713      5716      5712      5710      5713      5714
      5712      5710      5713      5715      5712      5710      5713      5716
      5714      5713      5716      5717      5714      5713      5716      5718
      5714      5713      5716      5719      5715      5713      5716      5717
      5715      5713      5716      5718      5715      5713      5716      5719
      5720      5723      5726      5727      5720      5723      5726      5728
      5720      5723      5726      5729      5721      5720      5723      5724
      5721      5720      5723      5725      5721      5720      5723      5726
      5722      5720      5723      5724      5722      5720      5723      5725
      5722      5720      5723      5726      5723      5726      5729      5730
      5723      5726      5729      5731      5723      5726      5729      5732
      5724      5723      5726      5727      5724      5723      5726      5728
      5724      5723      5726      5729      5725      5723      5726      5727
      5725      5723      5726      5728      5725      5723      5726      5729
      5726      5729      5732      5733      5726      5729      5732      5734
      5726      5729      5732      5735      5727      5726      5729      5730
      5727      5726      5729      5731      5727      5726      5729      5732
      5728      5726      5729      5730      5728      5726      5729      5731
      5728      5726      5729      5732      5729      5732      5735      5736
      5729      5732      5735      5737      5729      5732      5735      5738
      5730      5729      5732      5733      5730      5729      5732      5734
      5730      5729      5732      5735      5731      5729      5732      5733
      5731      5729      5732      5734      5731      5729      5732      5735
      5732      5735      5738      5739      5732      5735      5738      5740
      5732      5735      5738      5741      5733      5732      5735      5736
      5733      5732      5735      5737      5733      5732      5735      5738
      5734      5732      5735      5736      5734      5732      5735      5737
      5734      5732      5735      5738      5735      5738      5741      5742
      5735      5738      5741      5743      5735      5738      5741      5744
      5736      5735      5738      5739      5736      5735      5738      5740
      5736      5735      5738      5741      5737      5735      5738      5739
      5737      5735      5738      5740      5737      5735      5738      5741
      5738      5741      5744      5745      5738      5741      5744      5746
      5738      5741      5744      5747      5739      5738      5741      5742
      5739      5738      5741      5743      5739      5738      5741      5744
      5740      5738      5741      5742      5740      5738      5741      5743
      5740      5738      5741      5744      5741      5744      5747      5748
      5741      5744      5747      5749      5741      5744      5747      5750
      5742      5741      5744      5745      5742      5741      5744      5746
      5742      5741      5744      5747      5743      5741      5744      5745
      5743      5741      5744      5746      5743      5741      5744      5747
      5744      5747      5750      5751      5744      5747      5750      5752
      5744      5747      5750      5753      5745      5744      5747      5748
      5745      5744      5747      5749      5745      5744      5747      5750
      5746      5744      5747      5748      5746      5744      5747      5749
      5746      5744      5747      5750      5747      5750      5753      5754
      5747      5750      5753      5755      5747      5750      5753      5756
      5748      5747      5750      5751      5748      5747      5750      5752
      5748      5747      5750      5753      5749      5747      5750      5751
      5749      5747      5750      5752      5749      5747      5750      5753
      5750      5753      5756      5757      5750      5753      5756      5758
      5750      5753      5756      5759      5751      5750      5753      5754
      5751      5750      5753      5755      5751      5750      5753      5756
      5752      5750      5753      5754      5752      5750      5753      5755
      5752      5750      5753      5756      5753      5756      5759      5760
      5753      5756      5759      5761      5753      5756      5759      5762
      5754      5753      5756      5757      5754      5753      5756      5758
      5754      5753      5756      5759      5755      5753      5756      5757
      5755      5753      5756      5758      5755      5753      5756      5759
      5757      5756      5759      5760      5757      5756      5759      5761
      5757      5756      5759      5762      5758      5756      5759      5760
      5758      5756      5759      5761      5758      5756      5759      5762
      5763      5764      5779      5780      5763      5764      5779      5781
      5763      5764      5779      5785      5764      5763      5767      5768
      5764      5763      5767      5769      5764      5763      5767      5770
      5764      5763      5771      5772      5764      5763      5771      5773
      5764      5763      5771      5774      5764      5763      5775      5776
      5764      5763      5775      5777      5764      5763      5775      5778
      5764      5779      5785      5782      5765      5764      5763      5767
      5765      5764      5763      5771      5765      5764      5763      5775
      5765      5764      5779      5780      5765      5764      5779      5781
      5765      5764      5779      5785      5766      5764      5763      5767
      5766      5764      5763      5771      5766      5764      5763      5775
      5766      5764      5779      5780      5766      5764      5779      5781
      5766      5764      5779      5785      5767      5763      5764      5779
      5767      5763      5771      5772      5767      5763      5771      5773
      5767      5763      5771      5774      5767      5763      5775      5776
      5767      5763      5775      5777      5767      5763      5775      5778
      5768      5767      5763      5771      5768      5767      5763      5775
      5769      5767      5763      5771      5769      5767      5763      5775
      5770      5767      5763      5771      5770      5767      5763      5775
      5771      5763      5764      5779      5771      5763      5775      5776
      5771      5763      5775      5777      5771      5763      5775      5778
      5772      5771      5763      5775      5773      5771      5763      5775
      5774      5771      5763      5775      5775      5763      5764      5779
      5779      5785      5782      5783      5779      5785      5782      5784
      5779      5785      5782      5786      5780      5779      5785      5782
      5781      5779      5785      5782      5782      5786      5787      5788
      5782      5786      5787      5789      5782      5786      5787      5790
      5783      5782      5786      5787      5784      5782      5786      5787
      5785      5782      5786      5787      5786      5787      5790      5791
      5786      5787      5790      5792      5786      5787      5790      5798
      5787      5790      5792      5793      5787      5790      5798      5799
      5787      5790      5798      5800      5787      5790      5798      5801
      5788      5787      5790      5791      5788      5787      5790      5792
      5788      5787      5790      5798      5789      5787      5790      5791
      5789      5787      5790      5792      5789      5787      5790      5798
      5790      5792      5793      5794      5790      5792      5793      5795
      5790      5798      5801      5802      5791      5790      5792      5793
      5791      5790      5798      5799      5791      5790      5798      5800
      5791      5790      5798      5801      5792      5790      5798      5799
      5792      5790      5798      5800      5792      5790      5798      5801
      5792      5793      5795      5796      5792      5793      5795      5797
      5792      5793      5795      5807      5793      5792      5790      5798
      5793      5795      5807      5808      5793      5795      5807      5809
      5793      5795      5807      5810      5794      5793      5795      5796
      5794      5793      5795      5797      5794      5793      5795      5807
      5795      5807      5810      5811      5795      5807      5810      5812
      5795      5807      5810      5813      5796      5795      5807      5808
      5796      5795      5807      5809      5796      5795      5807      5810
      5797      5795      5807      5808      5797      5795      5807      5809
      5797      5795      5807      5810      5798      5801      5802      5803
      5798      5801      5802      5804      5799      5798      5801      5802
      5800      5798      5801      5802      5801      5802      5804      5805
      5801      5802      5804      5806      5801      5802      5804      5854
      5802      5804      5854      5855      5802      5804      5854      5856
      5802      5804      5854      5857      5803      5802      5804      5805
      5803      5802      5804      5806      5803      5802      5804      5854
      5804      5854      5857      5858      5804      5854      5857      5859
      5804      5854      5857      5860      5805      5804      5854      5855
      5805      5804      5854      5856      5805      5804      5854      5857
      5806      5804      5854      5855      5806      5804      5854      5856
      5806      5804      5854      5857      5807      5810      5813      5814
      5807      5810      5813      5815      5807      5810      5813      5816
      5808      5807      5810      5811      5808      5807      5810      5812
      5808      5807      5810      5813      5809      5807      5810      5811
      5809      5807      5810      5812      5809      5807      5810      5813
      5810      5813      5816      5817      5810      5813      5816      5818
      5810      5813      5816      5819      5811      5810      5813      5814
      5811      5810      5813      5815      5811      5810      5813      5816
      5812      5810      5813      5814      5812      5810      5813      5815
      5812      5810      5813      5816      5813      5816      5819      5820
      5813      5816      5819      5821      5813      5816      5819      5822
      5814      5813      5816      5817      5814      5813      5816      5818
      5814      5813      5816      5819      5815      5813      5816      5817
      5815      5813      5816      5818      5815      5813      5816      5819
      5816      5819      5822      5823      5816      5819      5822      5824
      5816      5819      5822      5825      5817      5816      5819      5820
      5817      5816      5819      5821      5817      5816      5819      5822
      5818      5816      5819      5820      5818      5816      5819      5821
      5818      5816      5819      5822      5819      5822      5825      5826
      5819      5822      5825      5827      5820      5819      5822      5823
      5820      5819      5822      5824      5820      5819      5822      5825
      5821      5819      5822      5823      5821      5819      5822      5824
      5821      5819      5822      5825      5822      5825      5827      5828
      5822      5825      5827      5829      5823      5822      5825      5826
      5823      5822      5825      5827      5824      5822      5825      5826
      5824      5822      5825      5827      5825      5827      5829      5830
      5825      5827      5829      5831      5825      5827      5829      5832
      5826      5825      5827      5828      5826      5825      5827      5829
      5827      5829      5832      5833      5827      5829      5832      5834
      5827      5829      5832      5835      5828      5827      5829      5830
      5828      5827      5829      5831      5828      5827      5829      5832
      5829      5832      5835      5836      5829      5832      5835      5837
      5829      5832      5835      5838      5830      5829      5832      5833
      5830      5829      5832      5834      5830      5829      5832      5835
      5831      5829      5832      5833      5831      5829      5832      5834
      5831      5829      5832      5835      5832      5835      5838      5839
      5832      5835      5838      5840      5832      5835      5838      5841
      5833      5832      5835      5836      5833      5832      5835      5837
      5833      5832      5835      5838      5834      5832      5835      5836
      5834      5832      5835      5837      5834      5832      5835      5838
      5835      5838      5841      5842      5835      5838      5841      5843
      5835      5838      5841      5844      5836      5835      5838      5839
      5836      5835      5838      5840      5836      5835      5838      5841
      5837      5835      5838      5839      5837      5835      5838      5840
      5837      5835      5838      5841      5838      5841      5844      5845
      5838      5841      5844      5846      5838      5841      5844      5847
      5839      5838      5841      5842      5839      5838      5841      5843
      5839      5838      5841      5844      5840      5838      5841      5842
      5840      5838      5841      5843      5840      5838      5841      5844
      5841      5844      5847      5848      5841      5844      5847      5849
      5841      5844      5847      5850      5842      5841      5844      5845
      5842      5841      5844      5846      5842      5841      5844      5847
      5843      5841      5844      5845      5843      5841      5844      5846
      5843      5841      5844      5847      5844      5847      5850      5851
      5844      5847      5850      5852      5844      5847      5850      5853
      5845      5844      5847      5848      5845      5844      5847      5849
      5845      5844      5847      5850      5846      5844      5847      5848
      5846      5844      5847      5849      5846      5844      5847      5850
      5848      5847      5850      5851      5848      5847      5850      5852
      5848      5847      5850      5853      5849      5847      5850      5851
      5849      5847      5850      5852      5849      5847      5850      5853
      5854      5857      5860      5861      5854      5857      5860      5862
      5854      5857      5860      5863      5855      5854      5857      5858
      5855      5854      5857      5859      5855      5854      5857      5860
      5856      5854      5857      5858      5856      5854      5857      5859
      5856      5854      5857      5860      5857      5860      5863      5864
      5857      5860      5863      5865      5857      5860      5863      5866
      5858      5857      5860      5861      5858      5857      5860      5862
      5858      5857      5860      5863      5859      5857      5860      5861
      5859      5857      5860      5862      5859      5857      5860      5863
      5860      5863      5866      5867      5860      5863      5866      5868
      5860      5863      5866      5869      5861      5860      5863      5864
      5861      5860      5863      5865      5861      5860      5863      5866
      5862      5860      5863      5864      5862      5860      5863      5865
      5862      5860      5863      5866      5863      5866      5869      5870
      5863      5866      5869      5871      5863      5866      5869      5872
      5864      5863      5866      5867      5864      5863      5866      5868
      5864      5863      5866      5869      5865      5863      5866      5867
      5865      5863      5866      5868      5865      5863      5866      5869
      5866      5869      5872      5873      5866      5869      5872      5874
      5866      5869      5872      5875      5867      5866      5869      5870
      5867      5866      5869      5871      5867      5866      5869      5872
      5868      5866      5869      5870      5868      5866      5869      5871
      5868      5866      5869      5872      5869      5872      5875      5876
      5869      5872      5875      5877      5869      5872      5875      5878
      5870      5869      5872      5873      5870      5869      5872      5874
      5870      5869      5872      5875      5871      5869      5872      5873
      5871      5869      5872      5874      5871      5869      5872      5875
      5872      5875      5878      5879      5872      5875      5878      5880
      5872      5875      5878      5881      5873      5872      5875      5876
      5873      5872      5875      5877      5873      5872      5875      5878
      5874      5872      5875      5876      5874      5872      5875      5877
      5874      5872      5875      5878      5875      5878      5881      5882
      5875      5878      5881      5883      5875      5878      5881      5884
      5876      5875      5878      5879      5876      5875      5878      5880
      5876      5875      5878      5881      5877      5875      5878      5879
      5877      5875      5878      5880      5877      5875      5878      5881
      5878      5881      5884      5885      5878      5881      5884      5886
      5878      5881      5884      5887      5879      5878      5881      5882
      5879      5878      5881      5883      5879      5878      5881      5884
      5880      5878      5881      5882      5880      5878      5881      5883
      5880      5878      5881      5884      5881      5884      5887      5888
      5881      5884      5887      5889      5881      5884      5887      5890
      5882      5881      5884      5885      5882      5881      5884      5886
      5882      5881      5884      5887      5883      5881      5884      5885
      5883      5881      5884      5886      5883      5881      5884      5887
      5884      5887      5890      5891      5884      5887      5890      5892
      5884      5887      5890      5893      5885      5884      5887      5888
      5885      5884      5887      5889      5885      5884      5887      5890
      5886      5884      5887      5888      5886      5884      5887      5889
      5886      5884      5887      5890      5887      5890      5893      5894
      5887      5890      5893      5895      5887      5890      5893      5896
      5888      5887      5890      5891      5888      5887      5890      5892
      5888      5887      5890      5893      5889      5887      5890      5891
      5889      5887      5890      5892      5889      5887      5890      5893
      5891      5890      5893      5894      5891      5890      5893      5895
      5891      5890      5893      5896      5892      5890      5893      5894
      5892      5890      5893      5895      5892      5890      5893      5896
      5897      5898      5913      5914      5897      5898      5913      5915
      5897      5898      5913      5919      5898      5897      5901      5902
      5898      5897      5901      5903      5898      5897      5901      5904
      5898      5897      5905      5906      5898      5897      5905      5907
      5898      5897      5905      5908      5898      5897      5909      5910
      5898      5897      5909      5911      5898      5897      5909      5912
      5898      5913      5919      5916      5899      5898      5897      5901
      5899      5898      5897      5905      5899      5898      5897      5909
      5899      5898      5913      5914      5899      5898      5913      5915
      5899      5898      5913      5919      5900      5898      5897      5901
      5900      5898      5897      5905      5900      5898      5897      5909
      5900      5898      5913      5914      5900      5898      5913      5915
      5900      5898      5913      5919      5901      5897      5898      5913
      5901      5897      5905      5906      5901      5897      5905      5907
      5901      5897      5905      5908      5901      5897      5909      5910
      5901      5897      5909      5911      5901      5897      5909      5912
      5902      5901      5897      5905      5902      5901      5897      5909
      5903      5901      5897      5905      5903      5901      5897      5909
      5904      5901      5897      5905      5904      5901      5897      5909
      5905      5897      5898      5913      5905      5897      5909      5910
      5905      5897      5909      5911      5905      5897      5909      5912
      5906      5905      5897      5909      5907      5905      5897      5909
      5908      5905      5897      5909      5909      5897      5898      5913
      5913      5919      5916      5917      5913      5919      5916      5918
      5913      5919      5916      5920      5914      5913      5919      5916
      5915      5913      5919      5916      5916      5920      5921      5922
      5916      5920      5921      5923      5916      5920      5921      5924
      5917      5916      5920      5921      5918      5916      5920      5921
      5919      5916      5920      5921      5920      5921      5924      5925
      5920      5921      5924      5926      5920      5921      5924      5932
      5921      5924      5926      5927      5921      5924      5932      5933
      5921      5924      5932      5934      5921      5924      5932      5935
      5922      5921      5924      5925      5922      5921      5924      5926
      5922      5921      5924      5932      5923      5921      5924      5925
      5923      5921      5924      5926      5923      5921      5924      5932
      5924      5926      5927      5928      5924      5926      5927      5929
      5924      5932      5935      5936      5925      5924      5926      5927
      5925      5924      5932      5933      5925      5924      5932      5934
      5925      5924      5932      5935      5926      5924      5932      5933
      5926      5924      5932      5934      5926      5924      5932      5935
      5926      5927      5929      5930      5926      5927      5929      5931
      5926      5927      5929      5941      5927      5926      5924      5932
      5927      5929      5941      5942      5927      5929      5941      5943
      5927      5929      5941      5944      5928      5927      5929      5930
      5928      5927      5929      5931      5928      5927      5929      5941
      5929      5941      5944      5945      5929      5941      5944      5946
      5929      5941      5944      5947      5930      5929      5941      5942
      5930      5929      5941      5943      5930      5929      5941      5944
      5931      5929      5941      5942      5931      5929      5941      5943
      5931      5929      5941      5944      5932      5935      5936      5937
      5932      5935      5936      5938      5933      5932      5935      5936
      5934      5932      5935      5936      5935      5936      5938      5939
      5935      5936      5938      5940      5935      5936      5938      5988
      5936      5938      5988      5989      5936      5938      5988      5990
      5936      5938      5988      5991      5937      5936      5938      5939
      5937      5936      5938      5940      5937      5936      5938      5988
      5938      5988      5991      5992      5938      5988      5991      5993
      5938      5988      5991      5994      5939      5938      5988      5989
      5939      5938      5988      5990      5939      5938      5988      5991
      5940      5938      5988      5989      5940      5938      5988      5990
      5940      5938      5988      5991      5941      5944      5947      5948
      5941      5944      5947      5949      5941      5944      5947      5950
      5942      5941      5944      5945      5942      5941      5944      5946
      5942      5941      5944      5947      5943      5941      5944      5945
      5943      5941      5944      5946      5943      5941      5944      5947
      5944      5947      5950      5951      5944      5947      5950      5952
      5944      5947      5950      5953      5945      5944      5947      5948
      5945      5944      5947      5949      5945      5944      5947      5950
      5946      5944      5947      5948      5946      5944      5947      5949
      5946      5944      5947      5950      5947      5950      5953      5954
      5947      5950      5953      5955      5947      5950      5953      5956
      5948      5947      5950      5951      5948      5947      5950      5952
      5948      5947      5950      5953      5949      5947      5950      5951
      5949      5947      5950      5952      5949      5947      5950      5953
      5950      5953      5956      5957      5950      5953      5956      5958
      5950      5953      5956      5959      5951      5950      5953      5954
      5951      5950      5953      5955      5951      5950      5953      5956
      5952      5950      5953      5954      5952      5950      5953      5955
      5952      5950      5953      5956      5953      5956      5959      5960
      5953      5956      5959      5961      5954      5953      5956      5957
      5954      5953      5956      5958      5954      5953      5956      5959
      5955      5953      5956      5957      5955      5953      5956      5958
      5955      5953      5956      5959      5956      5959      5961      5962
      5956      5959      5961      5963      5957      5956      5959      5960
      5957      5956      5959      5961      5958      5956      5959      5960
      5958      5956      5959      5961      5959      5961      5963      5964
      5959      5961      5963      5965      5959      5961      5963      5966
      5960      5959      5961      5962      5960      5959      5961      5963
      5961      5963      5966      5967      5961      5963      5966      5968
      5961      5963      5966      5969      5962      5961      5963      5964
      5962      5961      5963      5965      5962      5961      5963      5966
      5963      5966      5969      5970      5963      5966      5969      5971
      5963      5966      5969      5972      5964      5963      5966      5967
      5964      5963      5966      5968      5964      5963      5966      5969
      5965      5963      5966      5967      5965      5963      5966      5968
      5965      5963      5966      5969      5966      5969      5972      5973
      5966      5969      5972      5974      5966      5969      5972      5975
      5967      5966      5969      5970      5967      5966      5969      5971
      5967      5966      5969      5972      5968      5966      5969      5970
      5968      5966      5969      5971      5968      5966      5969      5972
      5969      5972      5975      5976      5969      5972      5975      5977
      5969      5972      5975      5978      5970      5969      5972      5973
      5970      5969      5972      5974      5970      5969      5972      5975
      5971      5969      5972      5973      5971      5969      5972      5974
      5971      5969      5972      5975      5972      5975      5978      5979
      5972      5975      5978      5980      5972      5975      5978      5981
      5973      5972      5975      5976      5973      5972      5975      5977
      5973      5972      5975      5978      5974      5972      5975      5976
      5974      5972      5975      5977      5974      5972      5975      5978
      5975      5978      5981      5982      5975      5978      5981      5983
      5975      5978      5981      5984      5976      5975      5978      5979
      5976      5975      5978      5980      5976      5975      5978      5981
      5977      5975      5978      5979      5977      5975      5978      5980
      5977      5975      5978      5981      5978      5981      5984      5985
      5978      5981      5984      5986      5978      5981      5984      5987
      5979      5978      5981      5982      5979      5978      5981      5983
      5979      5978      5981      5984      5980      5978      5981      5982
      5980      5978      5981      5983      5980      5978      5981      5984
      5982      5981      5984      5985      5982      5981      5984      5986
      5982      5981      5984      5987      5983      5981      5984      5985
      5983      5981      5984      5986      5983      5981      5984      5987
      5988      5991      5994      5995      5988      5991      5994      5996
      5988      5991      5994      5997      5989      5988      5991      5992
      5989      5988      5991      5993      5989      5988      5991      5994
      5990      5988      5991      5992      5990      5988      5991      5993
      5990      5988      5991      5994      5991      5994      5997      5998
      5991      5994      5997      5999      5991      5994      5997      6000
      5992      5991      5994      5995      5992      5991      5994      5996
      5992      5991      5994      5997      5993      5991      5994      5995
      5993      5991      5994      5996      5993      5991      5994      5997
      5994      5997      6000      6001      5994      5997      6000      6002
      5994      5997      6000      6003      5995      5994      5997      5998
      5995      5994      5997      5999      5995      5994      5997      6000
      5996      5994      5997      5998      5996      5994      5997      5999
      5996      5994      5997      6000      5997      6000      6003      6004
      5997      6000      6003      6005      5997      6000      6003      6006
      5998      5997      6000      6001      5998      5997      6000      6002
      5998      5997      6000      6003      5999      5997      6000      6001
      5999      5997      6000      6002      5999      5997      6000      6003
      6000      6003      6006      6007      6000      6003      6006      6008
      6000      6003      6006      6009      6001      6000      6003      6004
      6001      6000      6003      6005      6001      6000      6003      6006
      6002      6000      6003      6004      6002      6000      6003      6005
      6002      6000      6003      6006      6003      6006      6009      6010
      6003      6006      6009      6011      6003      6006      6009      6012
      6004      6003      6006      6007      6004      6003      6006      6008
      6004      6003      6006      6009      6005      6003      6006      6007
      6005      6003      6006      6008      6005      6003      6006      6009
      6006      6009      6012      6013      6006      6009      6012      6014
      6006      6009      6012      6015      6007      6006      6009      6010
      6007      6006      6009      6011      6007      6006      6009      6012
      6008      6006      6009      6010      6008      6006      6009      6011
      6008      6006      6009      6012      6009      6012      6015      6016
      6009      6012      6015      6017      6009      6012      6015      6018
      6010      6009      6012      6013      6010      6009      6012      6014
      6010      6009      6012      6015      6011      6009      6012      6013
      6011      6009      6012      6014      6011      6009      6012      6015
      6012      6015      6018      6019      6012      6015      6018      6020
      6012      6015      6018      6021      6013      6012      6015      6016
      6013      6012      6015      6017      6013      6012      6015      6018
      6014      6012      6015      6016      6014      6012      6015      6017
      6014      6012      6015      6018      6015      6018      6021      6022
      6015      6018      6021      6023      6015      6018      6021      6024
      6016      6015      6018      6019      6016      6015      6018      6020
      6016      6015      6018      6021      6017      6015      6018      6019
      6017      6015      6018      6020      6017      6015      6018      6021
      6018      6021      6024      6025      6018      6021      6024      6026
      6018      6021      6024      6027      6019      6018      6021      6022
      6019      6018      6021      6023      6019      6018      6021      6024
      6020      6018      6021      6022      6020      6018      6021      6023
      6020      6018      6021      6024      6021      6024      6027      6028
      6021      6024      6027      6029      6021      6024      6027      6030
      6022      6021      6024      6025      6022      6021      6024      6026
      6022      6021      6024      6027      6023      6021      6024      6025
      6023      6021      6024      6026      6023      6021      6024      6027
      6025      6024      6027      6028      6025      6024      6027      6029
      6025      6024      6027      6030      6026      6024      6027      6028
      6026      6024      6027      6029      6026      6024      6027      6030
      6031      6032      6047      6048      6031      6032      6047      6049
      6031      6032      6047      6053      6032      6031      6035      6036
      6032      6031      6035      6037      6032      6031      6035      6038
      6032      6031      6039      6040      6032      6031      6039      6041
      6032      6031      6039      6042      6032      6031      6043      6044
      6032      6031      6043      6045      6032      6031      6043      6046
      6032      6047      6053      6050      6033      6032      6031      6035
      6033      6032      6031      6039      6033      6032      6031      6043
      6033      6032      6047      6048      6033      6032      6047      6049
      6033      6032      6047      6053      6034      6032      6031      6035
      6034      6032      6031      6039      6034      6032      6031      6043
      6034      6032      6047      6048      6034      6032      6047      6049
      6034      6032      6047      6053      6035      6031      6032      6047
      6035      6031      6039      6040      6035      6031      6039      6041
      6035      6031      6039      6042      6035      6031      6043      6044
      6035      6031      6043      6045      6035      6031      6043      6046
      6036      6035      6031      6039      6036      6035      6031      6043
      6037      6035      6031      6039      6037      6035      6031      6043
      6038      6035      6031      6039      6038      6035      6031      6043
      6039      6031      6032      6047      6039      6031      6043      6044
      6039      6031      6043      6045      6039      6031      6043      6046
      6040      6039      6031      6043      6041      6039      6031      6043
      6042      6039      6031      6043      6043      6031      6032      6047
      6047      6053      6050      6051      6047      6053      6050      6052
      6047      6053      6050      6054      6048      6047      6053      6050
      6049      6047      6053      6050      6050      6054      6055      6056
      6050      6054      6055      6057      6050      6054      6055      6058
      6051      6050      6054      6055      6052      6050      6054      6055
      6053      6050      6054      6055      6054      6055      6058      6059
      6054      6055      6058      6060      6054      6055      6058      6066
      6055      6058      6060      6061      6055      6058      6066      6067
      6055      6058      6066      6068      6055      6058      6066      6069
      6056      6055      6058      6059      6056      6055      6058      6060
      6056      6055      6058      6066      6057      6055      6058      6059
      6057      6055      6058      6060      6057      6055      6058      6066
      6058      6060      6061      6062      6058      6060      6061      6063
      6058      6066      6069      6070      6059      6058      6060      6061
      6059      6058      6066      6067      6059      6058      6066      6068
      6059      6058      6066      6069      6060      6058      6066      6067
      6060      6058      6066      6068      6060      6058      6066      6069
      6060      6061      6063      6064      6060      6061      6063      6065
      6060      6061      6063      6075      6061      6060      6058      6066
      6061      6063      6075      6076      6061      6063      6075      6077
      6061      6063      6075      6078      6062      6061      6063      6064
      6062      6061      6063      6065      6062      6061      6063      6075
      6063      6075      6078      6079      6063      6075      6078      6080
      6063      6075      6078      6081      6064      6063      6075      6076
      6064      6063      6075      6077      6064      6063      6075      6078
      6065      6063      6075      6076      6065      6063      6075      6077
      6065      6063      6075      6078      6066      6069      6070      6071
      6066      6069      6070      6072      6067      6066      6069      6070
      6068      6066      6069      6070      6069      6070      6072      6073
      6069      6070      6072      6074      6069      6070      6072      6122
      6070      6072      6122      6123      6070      6072      6122      6124
      6070      6072      6122      6125      6071      6070      6072      6073
      6071      6070      6072      6074      6071      6070      6072      6122
      6072      6122      6125      6126      6072      6122      6125      6127
      6072      6122      6125      6128      6073      6072      6122      6123
      6073      6072      6122      6124      6073      6072      6122      6125
      6074      6072      6122      6123      6074      6072      6122      6124
      6074      6072      6122      6125      6075      6078      6081      6082
      6075      6078      6081      6083      6075      6078      6081      6084
      6076      6075      6078      6079      6076      6075      6078      6080
      6076      6075      6078      6081      6077      6075      6078      6079
      6077      6075      6078      6080      6077      6075      6078      6081
      6078      6081      6084      6085      6078      6081      6084      6086
      6078      6081      6084      6087      6079      6078      6081      6082
      6079      6078      6081      6083      6079      6078      6081      6084
      6080      6078      6081      6082      6080      6078      6081      6083
      6080      6078      6081      6084      6081      6084      6087      6088
      6081      6084      6087      6089      6081      6084      6087      6090
      6082      6081      6084      6085      6082      6081      6084      6086
      6082      6081      6084      6087      6083      6081      6084      6085
      6083      6081      6084      6086      6083      6081      6084      6087
      6084      6087      6090      6091      6084      6087      6090      6092
      6084      6087      6090      6093      6085      6084      6087      6088
      6085      6084      6087      6089      6085      6084      6087      6090
      6086      6084      6087      6088      6086      6084      6087      6089
      6086      6084      6087      6090      6087      6090      6093      6094
      6087      6090      6093      6095      6088      6087      6090      6091
      6088      6087      6090      6092      6088      6087      6090      6093
      6089      6087      6090      6091      6089      6087      6090      6092
      6089      6087      6090      6093      6090      6093      6095      6096
      6090      6093      6095      6097      6091      6090      6093      6094
      6091      6090      6093      6095      6092      6090      6093      6094
      6092      6090      6093      6095      6093      6095      6097      6098
      6093      6095      6097      6099      6093      6095      6097      6100
      6094      6093      6095      6096      6094      6093      6095      6097
      6095      6097      6100      6101      6095      6097      6100      6102
      6095      6097      6100      6103      6096      6095      6097      6098
      6096      6095      6097      6099      6096      6095      6097      6100
      6097      6100      6103      6104      6097      6100      6103      6105
      6097      6100      6103      6106      6098      6097      6100      6101
      6098      6097      6100      6102      6098      6097      6100      6103
      6099      6097      6100      6101      6099      6097      6100      6102
      6099      6097      6100      6103      6100      6103      6106      6107
      6100      6103      6106      6108      6100      6103      6106      6109
      6101      6100      6103      6104      6101      6100      6103      6105
      6101      6100      6103      6106      6102      6100      6103      6104
      6102      6100      6103      6105      6102      6100      6103      6106
      6103      6106      6109      6110      6103      6106      6109      6111
      6103      6106      6109      6112      6104      6103      6106      6107
      6104      6103      6106      6108      6104      6103      6106      6109
      6105      6103      6106      6107      6105      6103      6106      6108
      6105      6103      6106      6109      6106      6109      6112      6113
      6106      6109      6112      6114      6106      6109      6112      6115
      6107      6106      6109      6110      6107      6106      6109      6111
      6107      6106      6109      6112      6108      6106      6109      6110
      6108      6106      6109      6111      6108      6106      6109      6112
      6109      6112      6115      6116      6109      6112      6115      6117
      6109      6112      6115      6118      6110      6109      6112      6113
      6110      6109      6112      6114      6110      6109      6112      6115
      6111      6109      6112      6113      6111      6109      6112      6114
      6111      6109      6112      6115      6112      6115      6118      6119
      6112      6115      6118      6120      6112      6115      6118      6121
      6113      6112      6115      6116      6113      6112      6115      6117
      6113      6112      6115      6118      6114      6112      6115      6116
      6114      6112      6115      6117      6114      6112      6115      6118
      6116      6115      6118      6119      6116      6115      6118      6120
      6116      6115      6118      6121      6117      6115      6118      6119
      6117      6115      6118      6120      6117      6115      6118      6121
      6122      6125      6128      6129      6122      6125      6128      6130
      6122      6125      6128      6131      6123      6122      6125      6126
      6123      6122      6125      6127      6123      6122      6125      6128
      6124      6122      6125      6126      6124      6122      6125      6127
      6124      6122      6125      6128      6125      6128      6131      6132
      6125      6128      6131      6133      6125      6128      6131      6134
      6126      6125      6128      6129      6126      6125      6128      6130
      6126      6125      6128      6131      6127      6125      6128      6129
      6127      6125      6128      6130      6127      6125      6128      6131
      6128      6131      6134      6135      6128      6131      6134      6136
      6128      6131      6134      6137      6129      6128      6131      6132
      6129      6128      6131      6133      6129      6128      6131      6134
      6130      6128      6131      6132      6130      6128      6131      6133
      6130      6128      6131      6134      6131      6134      6137      6138
      6131      6134      6137      6139      6131      6134      6137      6140
      6132      6131      6134      6135      6132      6131      6134      6136
      6132      6131      6134      6137      6133      6131      6134      6135
      6133      6131      6134      6136      6133      6131      6134      6137
      6134      6137      6140      6141      6134      6137      6140      6142
      6134      6137      6140      6143      6135      6134      6137      6138
      6135      6134      6137      6139      6135      6134      6137      6140
      6136      6134      6137      6138      6136      6134      6137      6139
      6136      6134      6137      6140      6137      6140      6143      6144
      6137      6140      6143      6145      6137      6140      6143      6146
      6138      6137      6140      6141      6138      6137      6140      6142
      6138      6137      6140      6143      6139      6137      6140      6141
      6139      6137      6140      6142      6139      6137      6140      6143
      6140      6143      6146      6147      6140      6143      6146      6148
      6140      6143      6146      6149      6141      6140      6143      6144
      6141      6140      6143      6145      6141      6140      6143      6146
      6142      6140      6143      6144      6142      6140      6143      6145
      6142      6140      6143      6146      6143      6146      6149      6150
      6143      6146      6149      6151      6143      6146      6149      6152
      6144      6143      6146      6147      6144      6143      6146      6148
      6144      6143      6146      6149      6145      6143      6146      6147
      6145      6143      6146      6148      6145      6143      6146      6149
      6146      6149      6152      6153      6146      6149      6152      6154
      6146      6149      6152      6155      6147      6146      6149      6150
      6147      6146      6149      6151      6147      6146      6149      6152
      6148      6146      6149      6150      6148      6146      6149      6151
      6148      6146      6149      6152      6149      6152      6155      6156
      6149      6152      6155      6157      6149      6152      6155      6158
      6150      6149      6152      6153      6150      6149      6152      6154
      6150      6149      6152      6155      6151      6149      6152      6153
      6151      6149      6152      6154      6151      6149      6152      6155
      6152      6155      6158      6159      6152      6155      6158      6160
      6152      6155      6158      6161      6153      6152      6155      6156
      6153      6152      6155      6157      6153      6152      6155      6158
      6154      6152      6155      6156      6154      6152      6155      6157
      6154      6152      6155      6158      6155      6158      6161      6162
      6155      6158      6161      6163      6155      6158      6161      6164
      6156      6155      6158      6159      6156      6155      6158      6160
      6156      6155      6158      6161      6157      6155      6158      6159
      6157      6155      6158      6160      6157      6155      6158      6161
      6159      6158      6161      6162      6159      6158      6161      6163
      6159      6158      6161      6164      6160      6158      6161      6162
      6160      6158      6161      6163      6160      6158      6161      6164
      6165      6166      6181      6182      6165      6166      6181      6183
      6165      6166      6181      6187      6166      6165      6169      6170
      6166      6165      6169      6171      6166      6165      6169      6172
      6166      6165      6173      6174      6166      6165      6173      6175
      6166      6165      6173      6176      6166      6165      6177      6178
      6166      6165      6177      6179      6166      6165      6177      6180
      6166      6181      6187      6184      6167      6166      6165      6169
      6167      6166      6165      6173      6167      6166      6165      6177
      6167      6166      6181      6182      6167      6166      6181      6183
      6167      6166      6181      6187      6168      6166      6165      6169
      6168      6166      6165      6173      6168      6166      6165      6177
      6168      6166      6181      6182      6168      6166      6181      6183
      6168      6166      6181      6187      6169      6165      6166      6181
      6169      6165      6173      6174      6169      6165      6173      6175
      6169      6165      6173      6176      6169      6165      6177      6178
      6169      6165      6177      6179      6169      6165      6177      6180
      6170      6169      6165      6173      6170      6169      6165      6177
      6171      6169      6165      6173      6171      6169      6165      6177
      6172      6169      6165      6173      6172      6169      6165      6177
      6173      6165      6166      6181      6173      6165      6177      6178
      6173      6165      6177      6179      6173      6165      6177      6180
      6174      6173      6165      6177      6175      6173      6165      6177
      6176      6173      6165      6177      6177      6165      6166      6181
      6181      6187      6184      6185      6181      6187      6184      6186
      6181      6187      6184      6188      6182      6181      6187      6184
      6183      6181      6187      6184      6184      6188      6189      6190
      6184      6188      6189      6191      6184      6188      6189      6192
      6185      6184      6188      6189      6186      6184      6188      6189
      6187      6184      6188      6189      6188      6189      6192      6193
      6188      6189      6192      6194      6188      6189      6192      6200
      6189      6192      6194      6195      6189      6192      6200      6201
      6189      6192      6200      6202      6189      6192      6200      6203
      6190      6189      6192      6193      6190      6189      6192      6194
      6190      6189      6192      6200      6191      6189      6192      6193
      6191      6189      6192      6194      6191      6189      6192      6200
      6192      6194      6195      6196      6192      6194      6195      6197
      6192      6200      6203      6204      6193      6192      6194      6195
      6193      6192      6200      6201      6193      6192      6200      6202
      6193      6192      6200      6203      6194      6192      6200      6201
      6194      6192      6200      6202      6194      6192      6200      6203
      6194      6195      6197      6198      6194      6195      6197      6199
      6194      6195      6197      6209      6195      6194      6192      6200
      6195      6197      6209      6210      6195      6197      6209      6211
      6195      6197      6209      6212      6196      6195      6197      6198
      6196      6195      6197      6199      6196      6195      6197      6209
      6197      6209      6212      6213      6197      6209      6212      6214
      6197      6209      6212      6215      6198      6197      6209      6210
      6198      6197      6209      6211      6198      6197      6209      6212
      6199      6197      6209      6210      6199      6197      6209      6211
      6199      6197      6209      6212      6200      6203      6204      6205
      6200      6203      6204      6206      6201      6200      6203      6204
      6202      6200      6203      6204      6203      6204      6206      6207
      6203      6204      6206      6208      6203      6204      6206      6256
      6204      6206      6256      6257      6204      6206      6256      6258
      6204      6206      6256      6259      6205      6204      6206      6207
      6205      6204      6206      6208      6205      6204      6206      6256
      6206      6256      6259      6260      6206      6256      6259      6261
      6206      6256      6259      6262      6207      6206      6256      6257
      6207      6206      6256      6258      6207      6206      6256      6259
      6208      6206      6256      6257      6208      6206      6256      6258
      6208      6206      6256      6259      6209      6212      6215      6216
      6209      6212      6215      6217      6209      6212      6215      6218
      6210      6209      6212      6213      6210      6209      6212      6214
      6210      6209      6212      6215      6211      6209      6212      6213
      6211      6209      6212      6214      6211      6209      6212      6215
      6212      6215      6218      6219      6212      6215      6218      6220
      6212      6215      6218      6221      6213      6212      6215      6216
      6213      6212      6215      6217      6213      6212      6215      6218
      6214      6212      6215      6216      6214      6212      6215      6217
      6214      6212      6215      6218      6215      6218      6221      6222
      6215      6218      6221      6223      6215      6218      6221      6224
      6216      6215      6218      6219      6216      6215      6218      6220
      6216      6215      6218      6221      6217      6215      6218      6219
      6217      6215      6218      6220      6217      6215      6218      6221
      6218      6221      6224      6225      6218      6221      6224      6226
      6218      6221      6224      6227      6219      6218      6221      6222
      6219      6218      6221      6223      6219      6218      6221      6224
      6220      6218      6221      6222      6220      6218      6221      6223
      6220      6218      6221      6224      6221      6224      6227      6228
      6221      6224      6227      6229      6222      6221      6224      6225
      6222      6221      6224      6226      6222      6221      6224      6227
      6223      6221      6224      6225      6223      6221      6224      6226
      6223      6221      6224      6227      6224      6227      6229      6230
      6224      6227      6229      6231      6225      6224      6227      6228
      6225      6224      6227      6229      6226      6224      6227      6228
      6226      6224      6227      6229      6227      6229      6231      6232
      6227      6229      6231      6233      6227      6229      6231      6234
      6228      6227      6229      6230      6228      6227      6229      6231
      6229      6231      6234      6235      6229      6231      6234      6236
      6229      6231      6234      6237      6230      6229      6231      6232
      6230      6229      6231      6233      6230      6229      6231      6234
      6231      6234      6237      6238      6231      6234      6237      6239
      6231      6234      6237      6240      6232      6231      6234      6235
      6232      6231      6234      6236      6232      6231      6234      6237
      6233      6231      6234      6235      6233      6231      6234      6236
      6233      6231      6234      6237      6234      6237      6240      6241
      6234      6237      6240      6242      6234      6237      6240      6243
      6235      6234      6237      6238      6235      6234      6237      6239
      6235      6234      6237      6240      6236      6234      6237      6238
      6236      6234      6237      6239      6236      6234      6237      6240
      6237      6240      6243      6244      6237      6240      6243      6245
      6237      6240      6243      6246      6238      6237      6240      6241
      6238      6237      6240      6242      6238      6237      6240      6243
      6239      6237      6240      6241      6239      6237      6240      6242
      6239      6237      6240      6243      6240      6243      6246      6247
      6240      6243      6246      6248      6240      6243      6246      6249
      6241      6240      6243      6244      6241      6240      6243      6245
      6241      6240      6243      6246      6242      6240      6243      6244
      6242      6240      6243      6245      6242      6240      6243      6246
      6243      6246      6249      6250      6243      6246      6249      6251
      6243      6246      6249      6252      6244      6243      6246      6247
      6244      6243      6246      6248      6244      6243      6246      6249
      6245      6243      6246      6247      6245      6243      6246      6248
      6245      6243      6246      6249      6246      6249      6252      6253
      6246      6249      6252      6254      6246      6249      6252      6255
      6247      6246      6249      6250      6247      6246      6249      6251
      6247      6246      6249      6252      6248      6246      6249      6250
      6248      6246      6249      6251      6248      6246      6249      6252
      6250      6249      6252      6253      6250      6249      6252      6254
      6250      6249      6252      6255      6251      6249      6252      6253
      6251      6249      6252      6254      6251      6249      6252      6255
      6256      6259      6262      6263      6256      6259      6262      6264
      6256      6259      6262      6265      6257      6256      6259      6260
      6257      6256      6259      6261      6257      6256      6259      6262
      6258      6256      6259      6260      6258      6256      6259      6261
      6258      6256      6259      6262      6259      6262      6265      6266
      6259      6262      6265      6267      6259      6262      6265      6268
      6260      6259      6262      6263      6260      6259      6262      6264
      6260      6259      6262      6265      6261      6259      6262      6263
      6261      6259      6262      6264      6261      6259      6262      6265
      6262      6265      6268      6269      6262      6265      6268      6270
      6262      6265      6268      6271      6263      6262      6265      6266
      6263      6262      6265      6267      6263      6262      6265      6268
      6264      6262      6265      6266      6264      6262      6265      6267
      6264      6262      6265      6268      6265      6268      6271      6272
      6265      6268      6271      6273      6265      6268      6271      6274
      6266      6265      6268      6269      6266      6265      6268      6270
      6266      6265      6268      6271      6267      6265      6268      6269
      6267      6265      6268      6270      6267      6265      6268      6271
      6268      6271      6274      6275      6268      6271      6274      6276
      6268      6271      6274      6277      6269      6268      6271      6272
      6269      6268      6271      6273      6269      6268      6271      6274
      6270      6268      6271      6272      6270      6268      6271      6273
      6270      6268      6271      6274      6271      6274      6277      6278
      6271      6274      6277      6279      6271      6274      6277      6280
      6272      6271      6274      6275      6272      6271      6274      6276
      6272      6271      6274      6277      6273      6271      6274      6275
      6273      6271      6274      6276      6273      6271      6274      6277
      6274      6277      6280      6281      6274      6277      6280      6282
      6274      6277      6280      6283      6275      6274      6277      6278
      6275      6274      6277      6279      6275      6274      6277      6280
      6276      6274      6277      6278      6276      6274      6277      6279
      6276      6274      6277      6280      6277      6280      6283      6284
      6277      6280      6283      6285      6277      6280      6283      6286
      6278      6277      6280      6281      6278      6277      6280      6282
      6278      6277      6280      6283      6279      6277      6280      6281
      6279      6277      6280      6282      6279      6277      6280      6283
      6280      6283      6286      6287      6280      6283      6286      6288
      6280      6283      6286      6289      6281      6280      6283      6284
      6281      6280      6283      6285      6281      6280      6283      6286
      6282      6280      6283      6284      6282      6280      6283      6285
      6282      6280      6283      6286      6283      6286      6289      6290
      6283      6286      6289      6291      6283      6286      6289      6292
      6284      6283      6286      6287      6284      6283      6286      6288
      6284      6283      6286      6289      6285      6283      6286      6287
      6285      6283      6286      6288      6285      6283      6286      6289
      6286      6289      6292      6293      6286      6289      6292      6294
      6286      6289      6292      6295      6287      6286      6289      6290
      6287      6286      6289      6291      6287      6286      6289      6292
      6288      6286      6289      6290      6288      6286      6289      6291
      6288      6286      6289      6292      6289      6292      6295      6296
      6289      6292      6295      6297      6289      6292      6295      6298
      6290      6289      6292      6293      6290      6289      6292      6294
      6290      6289      6292      6295      6291      6289      6292      6293
      6291      6289      6292      6294      6291      6289      6292      6295
      6293      6292      6295      6296      6293      6292      6295      6297
      6293      6292      6295      6298      6294      6292      6295      6296
      6294      6292      6295      6297      6294      6292      6295      6298
      6299      6300      6315      6316      6299      6300      6315      6317
      6299      6300      6315      6321      6300      6299      6303      6304
      6300      6299      6303      6305      6300      6299      6303      6306
      6300      6299      6307      6308      6300      6299      6307      6309
      6300      6299      6307      6310      6300      6299      6311      6312
      6300      6299      6311      6313      6300      6299      6311      6314
      6300      6315      6321      6318      6301      6300      6299      6303
      6301      6300      6299      6307      6301      6300      6299      6311
      6301      6300      6315      6316      6301      6300      6315      6317
      6301      6300      6315      6321      6302      6300      6299      6303
      6302      6300      6299      6307      6302      6300      6299      6311
      6302      6300      6315      6316      6302      6300      6315      6317
      6302      6300      6315      6321      6303      6299      6300      6315
      6303      6299      6307      6308      6303      6299      6307      6309
      6303      6299      6307      6310      6303      6299      6311      6312
      6303      6299      6311      6313      6303      6299      6311      6314
      6304      6303      6299      6307      6304      6303      6299      6311
      6305      6303      6299      6307      6305      6303      6299      6311
      6306      6303      6299      6307      6306      6303      6299      6311
      6307      6299      6300      6315      6307      6299      6311      6312
      6307      6299      6311      6313      6307      6299      6311      6314
      6308      6307      6299      6311      6309      6307      6299      6311
      6310      6307      6299      6311      6311      6299      6300      6315
      6315      6321      6318      6319      6315      6321      6318      6320
      6315      6321      6318      6322      6316      6315      6321      6318
      6317      6315      6321      6318      6318      6322      6323      6324
      6318      6322      6323      6325      6318      6322      6323      6326
      6319      6318      6322      6323      6320      6318      6322      6323
      6321      6318      6322      6323      6322      6323      6326      6327
      6322      6323      6326      6328      6322      6323      6326      6334
      6323      6326      6328      6329      6323      6326      6334      6335
      6323      6326      6334      6336      6323      6326      6334      6337
      6324      6323      6326      6327      6324      6323      6326      6328
      6324      6323      6326      6334      6325      6323      6326      6327
      6325      6323      6326      6328      6325      6323      6326      6334
      6326      6328      6329      6330      6326      6328      6329      6331
      6326      6334      6337      6338      6327      6326      6328      6329
      6327      6326      6334      6335      6327      6326      6334      6336
      6327      6326      6334      6337      6328      6326      6334      6335
      6328      6326      6334      6336      6328      6326      6334      6337
      6328      6329      6331      6332      6328      6329      6331      6333
      6328      6329      6331      6343      6329      6328      6326      6334
      6329      6331      6343      6344      6329      6331      6343      6345
      6329      6331      6343      6346      6330      6329      6331      6332
      6330      6329      6331      6333      6330      6329      6331      6343
      6331      6343      6346      6347      6331      6343      6346      6348
      6331      6343      6346      6349      6332      6331      6343      6344
      6332      6331      6343      6345      6332      6331      6343      6346
      6333      6331      6343      6344      6333      6331      6343      6345
      6333      6331      6343      6346      6334      6337      6338      6339
      6334      6337      6338      6340      6335      6334      6337      6338
      6336      6334      6337      6338      6337      6338      6340      6341
      6337      6338      6340      6342      6337      6338      6340      6390
      6338      6340      6390      6391      6338      6340      6390      6392
      6338      6340      6390      6393      6339      6338      6340      6341
      6339      6338      6340      6342      6339      6338      6340      6390
      6340      6390      6393      6394      6340      6390      6393      6395
      6340      6390      6393      6396      6341      6340      6390      6391
      6341      6340      6390      6392      6341      6340      6390      6393
      6342      6340      6390      6391      6342      6340      6390      6392
      6342      6340      6390      6393      6343      6346      6349      6350
      6343      6346      6349      6351      6343      6346      6349      6352
      6344      6343      6346      6347      6344      6343      6346      6348
      6344      6343      6346      6349      6345      6343      6346      6347
      6345      6343      6346      6348      6345      6343      6346      6349
      6346      6349      6352      6353      6346      6349      6352      6354
      6346      6349      6352      6355      6347      6346      6349      6350
      6347      6346      6349      6351      6347      6346      6349      6352
      6348      6346      6349      6350      6348      6346      6349      6351
      6348      6346      6349      6352      6349      6352      6355      6356
      6349      6352      6355      6357      6349      6352      6355      6358
      6350      6349      6352      6353      6350      6349      6352      6354
      6350      6349      6352      6355      6351      6349      6352      6353
      6351      6349      6352      6354      6351      6349      6352      6355
      6352      6355      6358      6359      6352      6355      6358      6360
      6352      6355      6358      6361      6353      6352      6355      6356
      6353      6352      6355      6357      6353      6352      6355      6358
      6354      6352      6355      6356      6354      6352      6355      6357
      6354      6352      6355      6358      6355      6358      6361      6362
      6355      6358      6361      6363      6356      6355      6358      6359
      6356      6355      6358      6360      6356      6355      6358      6361
      6357      6355      6358      6359      6357      6355      6358      6360
      6357      6355      6358      6361      6358      6361      6363      6364
      6358      6361      6363      6365      6359      6358      6361      6362
      6359      6358      6361      6363      6360      6358      6361      6362
      6360      6358      6361      6363      6361      6363      6365      6366
      6361      6363      6365      6367      6361      6363      6365      6368
      6362      6361      6363      6364      6362      6361      6363      6365
      6363      6365      6368      6369      6363      6365      6368      6370
      6363      6365      6368      6371      6364      6363      6365      6366
      6364      6363      6365      6367      6364      6363      6365      6368
      6365      6368      6371      6372      6365      6368      6371      6373
      6365      6368      6371      6374      6366      6365      6368      6369
      6366      6365      6368      6370      6366      6365      6368      6371
      6367      6365      6368      6369      6367      6365      6368      6370
      6367      6365      6368      6371      6368      6371      6374      6375
      6368      6371      6374      6376      6368      6371      6374      6377
      6369      6368      6371      6372      6369      6368      6371      6373
      6369      6368      6371      6374      6370      6368      6371      6372
      6370      6368      6371      6373      6370      6368      6371      6374
      6371      6374      6377      6378      6371      6374      6377      6379
      6371      6374      6377      6380      6372      6371      6374      6375
      6372      6371      6374      6376      6372      6371      6374      6377
      6373      6371      6374      6375      6373      6371      6374      6376
      6373      6371      6374      6377      6374      6377      6380      6381
      6374      6377      6380      6382      6374      6377      6380      6383
      6375      6374      6377      6378      6375      6374      6377      6379
      6375      6374      6377      6380      6376      6374      6377      6378
      6376      6374      6377      6379      6376      6374      6377      6380
      6377      6380      6383      6384      6377      6380      6383      6385
      6377      6380      6383      6386      6378      6377      6380      6381
      6378      6377      6380      6382      6378      6377      6380      6383
      6379      6377      6380      6381      6379      6377      6380      6382
      6379      6377      6380      6383      6380      6383      6386      6387
      6380      6383      6386      6388      6380      6383      6386      6389
      6381      6380      6383      6384      6381      6380      6383      6385
      6381      6380      6383      6386      6382      6380      6383      6384
      6382      6380      6383      6385      6382      6380      6383      6386
      6384      6383      6386      6387      6384      6383      6386      6388
      6384      6383      6386      6389      6385      6383      6386      6387
      6385      6383      6386      6388      6385      6383      6386      6389
      6390      6393      6396      6397      6390      6393      6396      6398
      6390      6393      6396      6399      6391      6390      6393      6394
      6391      6390      6393      6395      6391      6390      6393      6396
      6392      6390      6393      6394      6392      6390      6393      6395
      6392      6390      6393      6396      6393      6396      6399      6400
      6393      6396      6399      6401      6393      6396      6399      6402
      6394      6393      6396      6397      6394      6393      6396      6398
      6394      6393      6396      6399      6395      6393      6396      6397
      6395      6393      6396      6398      6395      6393      6396      6399
      6396      6399      6402      6403      6396      6399      6402      6404
      6396      6399      6402      6405      6397      6396      6399      6400
      6397      6396      6399      6401      6397      6396      6399      6402
      6398      6396      6399      6400      6398      6396      6399      6401
      6398      6396      6399      6402      6399      6402      6405      6406
      6399      6402      6405      6407      6399      6402      6405      6408
      6400      6399      6402      6403      6400      6399      6402      6404
      6400      6399      6402      6405      6401      6399      6402      6403
      6401      6399      6402      6404      6401      6399      6402      6405
      6402      6405      6408      6409      6402      6405      6408      6410
      6402      6405      6408      6411      6403      6402      6405      6406
      6403      6402      6405      6407      6403      6402      6405      6408
      6404      6402      6405      6406      6404      6402      6405      6407
      6404      6402      6405      6408      6405      6408      6411      6412
      6405      6408      6411      6413      6405      6408      6411      6414
      6406      6405      6408      6409      6406      6405      6408      6410
      6406      6405      6408      6411      6407      6405      6408      6409
      6407      6405      6408      6410      6407      6405      6408      6411
      6408      6411      6414      6415      6408      6411      6414      6416
      6408      6411      6414      6417      6409      6408      6411      6412
      6409      6408      6411      6413      6409      6408      6411      6414
      6410      6408      6411      6412      6410      6408      6411      6413
      6410      6408      6411      6414      6411      6414      6417      6418
      6411      6414      6417      6419      6411      6414      6417      6420
      6412      6411      6414      6415      6412      6411      6414      6416
      6412      6411      6414      6417      6413      6411      6414      6415
      6413      6411      6414      6416      6413      6411      6414      6417
      6414      6417      6420      6421      6414      6417      6420      6422
      6414      6417      6420      6423      6415      6414      6417      6418
      6415      6414      6417      6419      6415      6414      6417      6420
      6416      6414      6417      6418      6416      6414      6417      6419
      6416      6414      6417      6420      6417      6420      6423      6424
      6417      6420      6423      6425      6417      6420      6423      6426
      6418      6417      6420      6421      6418      6417      6420      6422
      6418      6417      6420      6423      6419      6417      6420      6421
      6419      6417      6420      6422      6419      6417      6420      6423
      6420      6423      6426      6427      6420      6423      6426      6428
      6420      6423      6426      6429      6421      6420      6423      6424
      6421      6420      6423      6425      6421      6420      6423      6426
      6422      6420      6423      6424      6422      6420      6423      6425
      6422      6420      6423      6426      6423      6426      6429      6430
      6423      6426      6429      6431      6423      6426      6429      6432
      6424      6423      6426      6427      6424      6423      6426      6428
      6424      6423      6426      6429      6425      6423      6426      6427
      6425      6423      6426      6428      6425      6423      6426      6429
      6427      6426      6429      6430      6427      6426      6429      6431
      6427      6426      6429      6432      6428      6426      6429      6430
      6428      6426      6429      6431      6428      6426      6429      6432
      6433      6434      6449      6450      6433      6434      6449      6451
      6433      6434      6449      6455      6434      6433      6437      6438
      6434      6433      6437      6439      6434      6433      6437      6440
      6434      6433      6441      6442      6434      6433      6441      6443
      6434      6433      6441      6444      6434      6433      6445      6446
      6434      6433      6445      6447      6434      6433      6445      6448
      6434      6449      6455      6452      6435      6434      6433      6437
      6435      6434      6433      6441      6435      6434      6433      6445
      6435      6434      6449      6450      6435      6434      6449      6451
      6435      6434      6449      6455      6436      6434      6433      6437
      6436      6434      6433      6441      6436      6434      6433      6445
      6436      6434      6449      6450      6436      6434      6449      6451
      6436      6434      6449      6455      6437      6433      6434      6449
      6437      6433      6441      6442      6437      6433      6441      6443
      6437      6433      6441      6444      6437      6433      6445      6446
      6437      6433      6445      6447      6437      6433      6445      6448
      6438      6437      6433      6441      6438      6437      6433      6445
      6439      6437      6433      6441      6439      6437      6433      6445
      6440      6437      6433      6441      6440      6437      6433      6445
      6441      6433      6434      6449      6441      6433      6445      6446
      6441      6433      6445      6447      6441      6433      6445      6448
      6442      6441      6433      6445      6443      6441      6433      6445
      6444      6441      6433      6445      6445      6433      6434      6449
      6449      6455      6452      6453      6449      6455      6452      6454
      6449      6455      6452      6456      6450      6449      6455      6452
      6451      6449      6455      6452      6452      6456      6457      6458
      6452      6456      6457      6459      6452      6456      6457      6460
      6453      6452      6456      6457      6454      6452      6456      6457
      6455      6452      6456      6457      6456      6457      6460      6461
      6456      6457      6460      6462      6456      6457      6460      6468
      6457      6460      6462      6463      6457      6460      6468      6469
      6457      6460      6468      6470      6457      6460      6468      6471
      6458      6457      6460      6461      6458      6457      6460      6462
      6458      6457      6460      6468      6459      6457      6460      6461
      6459      6457      6460      6462      6459      6457      6460      6468
      6460      6462      6463      6464      6460      6462      6463      6465
      6460      6468      6471      6472      6461      6460      6462      6463
      6461      6460      6468      6469      6461      6460      6468      6470
      6461      6460      6468      6471      6462      6460      6468      6469
      6462      6460      6468      6470      6462      6460      6468      6471
      6462      6463      6465      6466      6462      6463      6465      6467
      6462      6463      6465      6477      6463      6462      6460      6468
      6463      6465      6477      6478      6463      6465      6477      6479
      6463      6465      6477      6480      6464      6463      6465      6466
      6464      6463      6465      6467      6464      6463      6465      6477
      6465      6477      6480      6481      6465      6477      6480      6482
      6465      6477      6480      6483      6466      6465      6477      6478
      6466      6465      6477      6479      6466      6465      6477      6480
      6467      6465      6477      6478      6467      6465      6477      6479
      6467      6465      6477      6480      6468      6471      6472      6473
      6468      6471      6472      6474      6469      6468      6471      6472
      6470      6468      6471      6472      6471      6472      6474      6475
      6471      6472      6474      6476      6471      6472      6474      6524
      6472      6474      6524      6525      6472      6474      6524      6526
      6472      6474      6524      6527      6473      6472      6474      6475
      6473      6472      6474      6476      6473      6472      6474      6524
      6474      6524      6527      6528      6474      6524      6527      6529
      6474      6524      6527      6530      6475      6474      6524      6525
      6475      6474      6524      6526      6475      6474      6524      6527
      6476      6474      6524      6525      6476      6474      6524      6526
      6476      6474      6524      6527      6477      6480      6483      6484
      6477      6480      6483      6485      6477      6480      6483      6486
      6478      6477      6480      6481      6478      6477      6480      6482
      6478      6477      6480      6483      6479      6477      6480      6481
      6479      6477      6480      6482      6479      6477      6480      6483
      6480      6483      6486      6487      6480      6483      6486      6488
      6480      6483      6486      6489      6481      6480      6483      6484
      6481      6480      6483      6485      6481      6480      6483      6486
      6482      6480      6483      6484      6482      6480      6483      6485
      6482      6480      6483      6486      6483      6486      6489      6490
      6483      6486      6489      6491      6483      6486      6489      6492
      6484      6483      6486      6487      6484      6483      6486      6488
      6484      6483      6486      6489      6485      6483      6486      6487
      6485      6483      6486      6488      6485      6483      6486      6489
      6486      6489      6492      6493      6486      6489      6492      6494
      6486      6489      6492      6495      6487      6486      6489      6490
      6487      6486      6489      6491      6487      6486      6489      6492
      6488      6486      6489      6490      6488      6486      6489      6491
      6488      6486      6489      6492      6489      6492      6495      6496
      6489      6492      6495      6497      6490      6489      6492      6493
      6490      6489      6492      6494      6490      6489      6492      6495
      6491      6489      6492      6493      6491      6489      6492      6494
      6491      6489      6492      6495      6492      6495      6497      6498
      6492      6495      6497      6499      6493      6492      6495      6496
      6493      6492      6495      6497      6494      6492      6495      6496
      6494      6492      6495      6497      6495      6497      6499      6500
      6495      6497      6499      6501      6495      6497      6499      6502
      6496      6495      6497      6498      6496      6495      6497      6499
      6497      6499      6502      6503      6497      6499      6502      6504
      6497      6499      6502      6505      6498      6497      6499      6500
      6498      6497      6499      6501      6498      6497      6499      6502
      6499      6502      6505      6506      6499      6502      6505      6507
      6499      6502      6505      6508      6500      6499      6502      6503
      6500      6499      6502      6504      6500      6499      6502      6505
      6501      6499      6502      6503      6501      6499      6502      6504
      6501      6499      6502      6505      6502      6505      6508      6509
      6502      6505      6508      6510      6502      6505      6508      6511
      6503      6502      6505      6506      6503      6502      6505      6507
      6503      6502      6505      6508      6504      6502      6505      6506
      6504      6502      6505      6507      6504      6502      6505      6508
      6505      6508      6511      6512      6505      6508      6511      6513
      6505      6508      6511      6514      6506      6505      6508      6509
      6506      6505      6508      6510      6506      6505      6508      6511
      6507      6505      6508      6509      6507      6505      6508      6510
      6507      6505      6508      6511      6508      6511      6514      6515
      6508      6511      6514      6516      6508      6511      6514      6517
      6509      6508      6511      6512      6509      6508      6511      6513
      6509      6508      6511      6514      6510      6508      6511      6512
      6510      6508      6511      6513      6510      6508      6511      6514
      6511      6514      6517      6518      6511      6514      6517      6519
      6511      6514      6517      6520      6512      6511      6514      6515
      6512      6511      6514      6516      6512      6511      6514      6517
      6513      6511      6514      6515      6513      6511      6514      6516
      6513      6511      6514      6517      6514      6517      6520      6521
      6514      6517      6520      6522      6514      6517      6520      6523
      6515      6514      6517      6518      6515      6514      6517      6519
      6515      6514      6517      6520      6516      6514      6517      6518
      6516      6514      6517      6519      6516      6514      6517      6520
      6518      6517      6520      6521      6518      6517      6520      6522
      6518      6517      6520      6523      6519      6517      6520      6521
      6519      6517      6520      6522      6519      6517      6520      6523
      6524      6527      6530      6531      6524      6527      6530      6532
      6524      6527      6530      6533      6525      6524      6527      6528
      6525      6524      6527      6529      6525      6524      6527      6530
      6526      6524      6527      6528      6526      6524      6527      6529
      6526      6524      6527      6530      6527      6530      6533      6534
      6527      6530      6533      6535      6527      6530      6533      6536
      6528      6527      6530      6531      6528      6527      6530      6532
      6528      6527      6530      6533      6529      6527      6530      6531
      6529      6527      6530      6532      6529      6527      6530      6533
      6530      6533      6536      6537      6530      6533      6536      6538
      6530      6533      6536      6539      6531      6530      6533      6534
      6531      6530      6533      6535      6531      6530      6533      6536
      6532      6530      6533      6534      6532      6530      6533      6535
      6532      6530      6533      6536      6533      6536      6539      6540
      6533      6536      6539      6541      6533      6536      6539      6542
      6534      6533      6536      6537      6534      6533      6536      6538
      6534      6533      6536      6539      6535      6533      6536      6537
      6535      6533      6536      6538      6535      6533      6536      6539
      6536      6539      6542      6543      6536      6539      6542      6544
      6536      6539      6542      6545      6537      6536      6539      6540
      6537      6536      6539      6541      6537      6536      6539      6542
      6538      6536      6539      6540      6538      6536      6539      6541
      6538      6536      6539      6542      6539      6542      6545      6546
      6539      6542      6545      6547      6539      6542      6545      6548
      6540      6539      6542      6543      6540      6539      6542      6544
      6540      6539      6542      6545      6541      6539      6542      6543
      6541      6539      6542      6544      6541      6539      6542      6545
      6542      6545      6548      6549      6542      6545      6548      6550
      6542      6545      6548      6551      6543      6542      6545      6546
      6543      6542      6545      6547      6543      6542      6545      6548
      6544      6542      6545      6546      6544      6542      6545      6547
      6544      6542      6545      6548      6545      6548      6551      6552
      6545      6548      6551      6553      6545      6548      6551      6554
      6546      6545      6548      6549      6546      6545      6548      6550
      6546      6545      6548      6551      6547      6545      6548      6549
      6547      6545      6548      6550      6547      6545      6548      6551
      6548      6551      6554      6555      6548      6551      6554      6556
      6548      6551      6554      6557      6549      6548      6551      6552
      6549      6548      6551      6553      6549      6548      6551      6554
      6550      6548      6551      6552      6550      6548      6551      6553
      6550      6548      6551      6554      6551      6554      6557      6558
      6551      6554      6557      6559      6551      6554      6557      6560
      6552      6551      6554      6555      6552      6551      6554      6556
      6552      6551      6554      6557      6553      6551      6554      6555
      6553      6551      6554      6556      6553      6551      6554      6557
      6554      6557      6560      6561      6554      6557      6560      6562
      6554      6557      6560      6563      6555      6554      6557      6558
      6555      6554      6557      6559      6555      6554      6557      6560
      6556      6554      6557      6558      6556      6554      6557      6559
      6556      6554      6557      6560      6557      6560      6563      6564
      6557      6560      6563      6565      6557      6560      6563      6566
      6558      6557      6560      6561      6558      6557      6560      6562
      6558      6557      6560      6563      6559      6557      6560      6561
      6559      6557      6560      6562      6559      6557      6560      6563
      6561      6560      6563      6564      6561      6560      6563      6565
      6561      6560      6563      6566      6562      6560      6563      6564
      6562      6560      6563      6565      6562      6560      6563      6566
      6567      6568      6583      6584      6567      6568      6583      6585
      6567      6568      6583      6589      6568      6567      6571      6572
      6568      6567      6571      6573      6568      6567      6571      6574
      6568      6567      6575      6576      6568      6567      6575      6577
      6568      6567      6575      6578      6568      6567      6579      6580
      6568      6567      6579      6581      6568      6567      6579      6582
      6568      6583      6589      6586      6569      6568      6567      6571
      6569      6568      6567      6575      6569      6568      6567      6579
      6569      6568      6583      6584      6569      6568      6583      6585
      6569      6568      6583      6589      6570      6568      6567      6571
      6570      6568      6567      6575      6570      6568      6567      6579
      6570      6568      6583      6584      6570      6568      6583      6585
      6570      6568      6583      6589      6571      6567      6568      6583
      6571      6567      6575      6576      6571      6567      6575      6577
      6571      6567      6575      6578      6571      6567      6579      6580
      6571      6567      6579      6581      6571      6567      6579      6582
      6572      6571      6567      6575      6572      6571      6567      6579
      6573      6571      6567      6575      6573      6571      6567      6579
      6574      6571      6567      6575      6574      6571      6567      6579
      6575      6567      6568      6583      6575      6567      6579      6580
      6575      6567      6579      6581      6575      6567      6579      6582
      6576      6575      6567      6579      6577      6575      6567      6579
      6578      6575      6567      6579      6579      6567      6568      6583
      6583      6589      6586      6587      6583      6589      6586      6588
      6583      6589      6586      6590      6584      6583      6589      6586
      6585      6583      6589      6586      6586      6590      6591      6592
      6586      6590      6591      6593      6586      6590      6591      6594
      6587      6586      6590      6591      6588      6586      6590      6591
      6589      6586      6590      6591      6590      6591      6594      6595
      6590      6591      6594      6596      6590      6591      6594      6602
      6591      6594      6596      6597      6591      6594      6602      6603
      6591      6594      6602      6604      6591      6594      6602      6605
      6592      6591      6594      6595      6592      6591      6594      6596
      6592      6591      6594      6602      6593      6591      6594      6595
      6593      6591      6594      6596      6593      6591      6594      6602
      6594      6596      6597      6598      6594      6596      6597      6599
      6594      6602      6605      6606      6595      6594      6596      6597
      6595      6594      6602      6603      6595      6594      6602      6604
      6595      6594      6602      6605      6596      6594      6602      6603
      6596      6594      6602      6604      6596      6594      6602      6605
      6596      6597      6599      6600      6596      6597      6599      6601
      6596      6597      6599      6611      6597      6596      6594      6602
      6597      6599      6611      6612      6597      6599      6611      6613
      6597      6599      6611      6614      6598      6597      6599      6600
      6598      6597      6599      6601      6598      6597      6599      6611
      6599      6611      6614      6615      6599      6611      6614      6616
      6599      6611      6614      6617      6600      6599      6611      6612
      6600      6599      6611      6613      6600      6599      6611      6614
      6601      6599      6611      6612      6601      6599      6611      6613
      6601      6599      6611      6614      6602      6605      6606      6607
      6602      6605      6606      6608      6603      6602      6605      6606
      6604      6602      6605      6606      6605      6606      6608      6609
      6605      6606      6608      6610      6605      6606      6608      6658
      6606      6608      6658      6659      6606      6608      6658      6660
      6606      6608      6658      6661      6607      6606      6608      6609
      6607      6606      6608      6610      6607      6606      6608      6658
      6608      6658      6661      6662      6608      6658      6661      6663
      6608      6658      6661      6664      6609      6608      6658      6659
      6609      6608      6658      6660      6609      6608      6658      6661
      6610      6608      6658      6659      6610      6608      6658      6660
      6610      6608      6658      6661      6611      6614      6617      6618
      6611      6614      6617      6619      6611      6614      6617      6620
      6612      6611      6614      6615      6612      6611      6614      6616
      6612      6611      6614      6617      6613      6611      6614      6615
      6613      6611      6614      6616      6613      6611      6614      6617
      6614      6617      6620      6621      6614      6617      6620      6622
      6614      6617      6620      6623      6615      6614      6617      6618
      6615      6614      6617      6619      6615      6614      6617      6620
      6616      6614      6617      6618      6616      6614      6617      6619
      6616      6614      6617      6620      6617      6620      6623      6624
      6617      6620      6623      6625      6617      6620      6623      6626
      6618      6617      6620      6621      6618      6617      6620      6622
      6618      6617      6620      6623      6619      6617      6620      6621
      6619      6617      6620      6622      6619      6617      6620      6623
      6620      6623      6626      6627      6620      6623      6626      6628
      6620      6623      6626      6629      6621      6620      6623      6624
      6621      6620      6623      6625      6621      6620      6623      6626
      6622      6620      6623      6624      6622      6620      6623      6625
      6622      6620      6623      6626      6623      6626      6629      6630
      6623      6626      6629      6631      6624      6623      6626      6627
      6624      6623      6626      6628      6624      6623      6626      6629
      6625      6623      6626      6627      6625      6623      6626      6628
      6625      6623      6626      6629      6626      6629      6631      6632
      6626      6629      6631      6633      6627      6626      6629      6630
      6627      6626      6629      6631      6628      6626      6629      6630
      6628      6626      6629      6631      6629      6631      6633      6634
      6629      6631      6633      6635      6629      6631      6633      6636
      6630      6629      6631      6632      6630      6629      6631      6633
      6631      6633      6636      6637      6631      6633      6636      6638
      6631      6633      6636      6639      6632      6631      6633      6634
      6632      6631      6633      6635      6632      6631      6633      6636
      6633      6636      6639      6640      6633      6636      6639      6641
      6633      6636      6639      6642      6634      6633      6636      6637
      6634      6633      6636      6638      6634      6633      6636      6639
      6635      6633      6636      6637      6635      6633      6636      6638
      6635      6633      6636      6639      6636      6639      6642      6643
      6636      6639      6642      6644      6636      6639      6642      6645
      6637      6636      6639      6640      6637      6636      6639      6641
      6637      6636      6639      6642      6638      6636      6639      6640
      6638      6636      6639      6641      6638      6636      6639      6642
      6639      6642      6645      6646      6639      6642      6645      6647
      6639      6642      6645      6648      6640      6639      6642      6643
      6640      6639      6642      6644      6640      6639      6642      6645
      6641      6639      6642      6643      6641      6639      6642      6644
      6641      6639      6642      6645      6642      6645      6648      6649
      6642      6645      6648      6650      6642      6645      6648      6651
      6643      6642      6645      6646      6643      6642      6645      6647
      6643      6642      6645      6648      6644      6642      6645      6646
      6644      6642      6645      6647      6644      6642      6645      6648
      6645      6648      6651      6652      6645      6648      6651      6653
      6645      6648      6651      6654      6646      6645      6648      6649
      6646      6645      6648      6650      6646      6645      6648      6651
      6647      6645      6648      6649      6647      6645      6648      6650
      6647      6645      6648      6651      6648      6651      6654      6655
      6648      6651      6654      6656      6648      6651      6654      6657
      6649      6648      6651      6652      6649      6648      6651      6653
      6649      6648      6651      6654      6650      6648      6651      6652
      6650      6648      6651      6653      6650      6648      6651      6654
      6652      6651      6654      6655      6652      6651      6654      6656
      6652      6651      6654      6657      6653      6651      6654      6655
      6653      6651      6654      6656      6653      6651      6654      6657
      6658      6661      6664      6665      6658      6661      6664      6666
      6658      6661      6664      6667      6659      6658      6661      6662
      6659      6658      6661      6663      6659      6658      6661      6664
      6660      6658      6661      6662      6660      6658      6661      6663
      6660      6658      6661      6664      6661      6664      6667      6668
      6661      6664      6667      6669      6661      6664      6667      6670
      6662      6661      6664      6665      6662      6661      6664      6666
      6662      6661      6664      6667      6663      6661      6664      6665
      6663      6661      6664      6666      6663      6661      6664      6667
      6664      6667      6670      6671      6664      6667      6670      6672
      6664      6667      6670      6673      6665      6664      6667      6668
      6665      6664      6667      6669      6665      6664      6667      6670
      6666      6664      6667      6668      6666      6664      6667      6669
      6666      6664      6667      6670      6667      6670      6673      6674
      6667      6670      6673      6675      6667      6670      6673      6676
      6668      6667      6670      6671      6668      6667      6670      6672
      6668      6667      6670      6673      6669      6667      6670      6671
      6669      6667      6670      6672      6669      6667      6670      6673
      6670      6673      6676      6677      6670      6673      6676      6678
      6670      6673      6676      6679      6671      6670      6673      6674
      6671      6670      6673      6675      6671      6670      6673      6676
      6672      6670      6673      6674      6672      6670      6673      6675
      6672      6670      6673      6676      6673      6676      6679      6680
      6673      6676      6679      6681      6673      6676      6679      6682
      6674      6673      6676      6677      6674      6673      6676      6678
      6674      6673      6676      6679      6675      6673      6676      6677
      6675      6673      6676      6678      6675      6673      6676      6679
      6676      6679      6682      6683      6676      6679      6682      6684
      6676      6679      6682      6685      6677      6676      6679      6680
      6677      6676      6679      6681      6677      6676      6679      6682
      6678      6676      6679      6680      6678      6676      6679      6681
      6678      6676      6679      6682      6679      6682      6685      6686
      6679      6682      6685      6687      6679      6682      6685      6688
      6680      6679      6682      6683      6680      6679      6682      6684
      6680      6679      6682      6685      6681      6679      6682      6683
      6681      6679      6682      6684      6681      6679      6682      6685
      6682      6685      6688      6689      6682      6685      6688      6690
      6682      6685      6688      6691      6683      6682      6685      6686
      6683      6682      6685      6687      6683      6682      6685      6688
      6684      6682      6685      6686      6684      6682      6685      6687
      6684      6682      6685      6688      6685      6688      6691      6692
      6685      6688      6691      6693      6685      6688      6691      6694
      6686      6685      6688      6689      6686      6685      6688      6690
      6686      6685      6688      6691      6687      6685      6688      6689
      6687      6685      6688      6690      6687      6685      6688      6691
      6688      6691      6694      6695      6688      6691      6694      6696
      6688      6691      6694      6697      6689      6688      6691      6692
      6689      6688      6691      6693      6689      6688      6691      6694
      6690      6688      6691      6692      6690      6688      6691      6693
      6690      6688      6691      6694      6691      6694      6697      6698
      6691      6694      6697      6699      6691      6694      6697      6700
      6692      6691      6694      6695      6692      6691      6694      6696
      6692      6691      6694      6697      6693      6691      6694      6695
      6693      6691      6694      6696      6693      6691      6694      6697
      6695      6694      6697      6698      6695      6694      6697      6699
      6695      6694      6697      6700      6696      6694      6697      6698
      6696      6694      6697      6699      6696      6694      6697      6700
      6701      6702      6717      6718      6701      6702      6717      6719
      6701      6702      6717      6723      6702      6701      6705      6706
      6702      6701      6705      6707      6702      6701      6705      6708
      6702      6701      6709      6710      6702      6701      6709      6711
      6702      6701      6709      6712      6702      6701      6713      6714
      6702      6701      6713      6715      6702      6701      6713      6716
      6702      6717      6723      6720      6703      6702      6701      6705
      6703      6702      6701      6709      6703      6702      6701      6713
      6703      6702      6717      6718      6703      6702      6717      6719
      6703      6702      6717      6723      6704      6702      6701      6705
      6704      6702      6701      6709      6704      6702      6701      6713
      6704      6702      6717      6718      6704      6702      6717      6719
      6704      6702      6717      6723      6705      6701      6702      6717
      6705      6701      6709      6710      6705      6701      6709      6711
      6705      6701      6709      6712      6705      6701      6713      6714
      6705      6701      6713      6715      6705      6701      6713      6716
      6706      6705      6701      6709      6706      6705      6701      6713
      6707      6705      6701      6709      6707      6705      6701      6713
      6708      6705      6701      6709      6708      6705      6701      6713
      6709      6701      6702      6717      6709      6701      6713      6714
      6709      6701      6713      6715      6709      6701      6713      6716
      6710      6709      6701      6713      6711      6709      6701      6713
      6712      6709      6701      6713      6713      6701      6702      6717
      6717      6723      6720      6721      6717      6723      6720      6722
      6717      6723      6720      6724      6718      6717      6723      6720
      6719      6717      6723      6720      6720      6724      6725      6726
      6720      6724      6725      6727      6720      6724      6725      6728
      6721      6720      6724      6725      6722      6720      6724      6725
      6723      6720      6724      6725      6724      6725      6728      6729
      6724      6725      6728      6730      6724      6725      6728      6736
      6725      6728      6730      6731      6725      6728      6736      6737
      6725      6728      6736      6738      6725      6728      6736      6739
      6726      6725      6728      6729      6726      6725      6728      6730
      6726      6725      6728      6736      6727      6725      6728      6729
      6727      6725      6728      6730      6727      6725      6728      6736
      6728      6730      6731      6732      6728      6730      6731      6733
      6728      6736      6739      6740      6729      6728      6730      6731
      6729      6728      6736      6737      6729      6728      6736      6738
      6729      6728      6736      6739      6730      6728      6736      6737
      6730      6728      6736      6738      6730      6728      6736      6739
      6730      6731      6733      6734      6730      6731      6733      6735
      6730      6731      6733      6745      6731      6730      6728      6736
      6731      6733      6745      6746      6731      6733      6745      6747
      6731      6733      6745      6748      6732      6731      6733      6734
      6732      6731      6733      6735      6732      6731      6733      6745
      6733      6745      6748      6749      6733      6745      6748      6750
      6733      6745      6748      6751      6734      6733      6745      6746
      6734      6733      6745      6747      6734      6733      6745      6748
      6735      6733      6745      6746      6735      6733      6745      6747
      6735      6733      6745      6748      6736      6739      6740      6741
      6736      6739      6740      6742      6737      6736      6739      6740
      6738      6736      6739      6740      6739      6740      6742      6743
      6739      6740      6742      6744      6739      6740      6742      6792
      6740      6742      6792      6793      6740      6742      6792      6794
      6740      6742      6792      6795      6741      6740      6742      6743
      6741      6740      6742      6744      6741      6740      6742      6792
      6742      6792      6795      6796      6742      6792      6795      6797
      6742      6792      6795      6798      6743      6742      6792      6793
      6743      6742      6792      6794      6743      6742      6792      6795
      6744      6742      6792      6793      6744      6742      6792      6794
      6744      6742      6792      6795      6745      6748      6751      6752
      6745      6748      6751      6753      6745      6748      6751      6754
      6746      6745      6748      6749      6746      6745      6748      6750
      6746      6745      6748      6751      6747      6745      6748      6749
      6747      6745      6748      6750      6747      6745      6748      6751
      6748      6751      6754      6755      6748      6751      6754      6756
      6748      6751      6754      6757      6749      6748      6751      6752
      6749      6748      6751      6753      6749      6748      6751      6754
      6750      6748      6751      6752      6750      6748      6751      6753
      6750      6748      6751      6754      6751      6754      6757      6758
      6751      6754      6757      6759      6751      6754      6757      6760
      6752      6751      6754      6755      6752      6751      6754      6756
      6752      6751      6754      6757      6753      6751      6754      6755
      6753      6751      6754      6756      6753      6751      6754      6757
      6754      6757      6760      6761      6754      6757      6760      6762
      6754      6757      6760      6763      6755      6754      6757      6758
      6755      6754      6757      6759      6755      6754      6757      6760
      6756      6754      6757      6758      6756      6754      6757      6759
      6756      6754      6757      6760      6757      6760      6763      6764
      6757      6760      6763      6765      6758      6757      6760      6761
      6758      6757      6760      6762      6758      6757      6760      6763
      6759      6757      6760      6761      6759      6757      6760      6762
      6759      6757      6760      6763      6760      6763      6765      6766
      6760      6763      6765      6767      6761      6760      6763      6764
      6761      6760      6763      6765      6762      6760      6763      6764
      6762      6760      6763      6765      6763      6765      6767      6768
      6763      6765      6767      6769      6763      6765      6767      6770
      6764      6763      6765      6766      6764      6763      6765      6767
      6765      6767      6770      6771      6765      6767      6770      6772
      6765      6767      6770      6773      6766      6765      6767      6768
      6766      6765      6767      6769      6766      6765      6767      6770
      6767      6770      6773      6774      6767      6770      6773      6775
      6767      6770      6773      6776      6768      6767      6770      6771
      6768      6767      6770      6772      6768      6767      6770      6773
      6769      6767      6770      6771      6769      6767      6770      6772
      6769      6767      6770      6773      6770      6773      6776      6777
      6770      6773      6776      6778      6770      6773      6776      6779
      6771      6770      6773      6774      6771      6770      6773      6775
      6771      6770      6773      6776      6772      6770      6773      6774
      6772      6770      6773      6775      6772      6770      6773      6776
      6773      6776      6779      6780      6773      6776      6779      6781
      6773      6776      6779      6782      6774      6773      6776      6777
      6774      6773      6776      6778      6774      6773      6776      6779
      6775      6773      6776      6777      6775      6773      6776      6778
      6775      6773      6776      6779      6776      6779      6782      6783
      6776      6779      6782      6784      6776      6779      6782      6785
      6777      6776      6779      6780      6777      6776      6779      6781
      6777      6776      6779      6782      6778      6776      6779      6780
      6778      6776      6779      6781      6778      6776      6779      6782
      6779      6782      6785      6786      6779      6782      6785      6787
      6779      6782      6785      6788      6780      6779      6782      6783
      6780      6779      6782      6784      6780      6779      6782      6785
      6781      6779      6782      6783      6781      6779      6782      6784
      6781      6779      6782      6785      6782      6785      6788      6789
      6782      6785      6788      6790      6782      6785      6788      6791
      6783      6782      6785      6786      6783      6782      6785      6787
      6783      6782      6785      6788      6784      6782      6785      6786
      6784      6782      6785      6787      6784      6782      6785      6788
      6786      6785      6788      6789      6786      6785      6788      6790
      6786      6785      6788      6791      6787      6785      6788      6789
      6787      6785      6788      6790      6787      6785      6788      6791
      6792      6795      6798      6799      6792      6795      6798      6800
      6792      6795      6798      6801      6793      6792      6795      6796
      6793      6792      6795      6797      6793      6792      6795      6798
      6794      6792      6795      6796      6794      6792      6795      6797
      6794      6792      6795      6798      6795      6798      6801      6802
      6795      6798      6801      6803      6795      6798      6801      6804
      6796      6795      6798      6799      6796      6795      6798      6800
      6796      6795      6798      6801      6797      6795      6798      6799
      6797      6795      6798      6800      6797      6795      6798      6801
      6798      6801      6804      6805      6798      6801      6804      6806
      6798      6801      6804      6807      6799      6798      6801      6802
      6799      6798      6801      6803      6799      6798      6801      6804
      6800      6798      6801      6802      6800      6798      6801      6803
      6800      6798      6801      6804      6801      6804      6807      6808
      6801      6804      6807      6809      6801      6804      6807      6810
      6802      6801      6804      6805      6802      6801      6804      6806
      6802      6801      6804      6807      6803      6801      6804      6805
      6803      6801      6804      6806      6803      6801      6804      6807
      6804      6807      6810      6811      6804      6807      6810      6812
      6804      6807      6810      6813      6805      6804      6807      6808
      6805      6804      6807      6809      6805      6804      6807      6810
      6806      6804      6807      6808      6806      6804      6807      6809
      6806      6804      6807      6810      6807      6810      6813      6814
      6807      6810      6813      6815      6807      6810      6813      6816
      6808      6807      6810      6811      6808      6807      6810      6812
      6808      6807      6810      6813      6809      6807      6810      6811
      6809      6807      6810      6812      6809      6807      6810      6813
      6810      6813      6816      6817      6810      6813      6816      6818
      6810      6813      6816      6819      6811      6810      6813      6814
      6811      6810      6813      6815      6811      6810      6813      6816
      6812      6810      6813      6814      6812      6810      6813      6815
      6812      6810      6813      6816      6813      6816      6819      6820
      6813      6816      6819      6821      6813      6816      6819      6822
      6814      6813      6816      6817      6814      6813      6816      6818
      6814      6813      6816      6819      6815      6813      6816      6817
      6815      6813      6816      6818      6815      6813      6816      6819
      6816      6819      6822      6823      6816      6819      6822      6824
      6816      6819      6822      6825      6817      6816      6819      6820
      6817      6816      6819      6821      6817      6816      6819      6822
      6818      6816      6819      6820      6818      6816      6819      6821
      6818      6816      6819      6822      6819      6822      6825      6826
      6819      6822      6825      6827      6819      6822      6825      6828
      6820      6819      6822      6823      6820      6819      6822      6824
      6820      6819      6822      6825      6821      6819      6822      6823
      6821      6819      6822      6824      6821      6819      6822      6825
      6822      6825      6828      6829      6822      6825      6828      6830
      6822      6825      6828      6831      6823      6822      6825      6826
      6823      6822      6825      6827      6823      6822      6825      6828
      6824      6822      6825      6826      6824      6822      6825      6827
      6824      6822      6825      6828      6825      6828      6831      6832
      6825      6828      6831      6833      6825      6828      6831      6834
      6826      6825      6828      6829      6826      6825      6828      6830
      6826      6825      6828      6831      6827      6825      6828      6829
      6827      6825      6828      6830      6827      6825      6828      6831
      6829      6828      6831      6832      6829      6828      6831      6833
      6829      6828      6831      6834      6830      6828      6831      6832
      6830      6828      6831      6833      6830      6828      6831      6834
      6835      6836      6851      6852      6835      6836      6851      6853
      6835      6836      6851      6857      6836      6835      6839      6840
      6836      6835      6839      6841      6836      6835      6839      6842
      6836      6835      6843      6844      6836      6835      6843      6845
      6836      6835      6843      6846      6836      6835      6847      6848
      6836      6835      6847      6849      6836      6835      6847      6850
      6836      6851      6857      6854      6837      6836      6835      6839
      6837      6836      6835      6843      6837      6836      6835      6847
      6837      6836      6851      6852      6837      6836      6851      6853
      6837      6836      6851      6857      6838      6836      6835      6839
      6838      6836      6835      6843      6838      6836      6835      6847
      6838      6836      6851      6852      6838      6836      6851      6853
      6838      6836      6851      6857      6839      6835      6836      6851
      6839      6835      6843      6844      6839      6835      6843      6845
      6839      6835      6843      6846      6839      6835      6847      6848
      6839      6835      6847      6849      6839      6835      6847      6850
      6840      6839      6835      6843      6840      6839      6835      6847
      6841      6839      6835      6843      6841      6839      6835      6847
      6842      6839      6835      6843      6842      6839      6835      6847
      6843      6835      6836      6851      6843      6835      6847      6848
      6843      6835      6847      6849      6843      6835      6847      6850
      6844      6843      6835      6847      6845      6843      6835      6847
      6846      6843      6835      6847      6847      6835      6836      6851
      6851      6857      6854      6855      6851      6857      6854      6856
      6851      6857      6854      6858      6852      6851      6857      6854
      6853      6851      6857      6854      6854      6858      6859      6860
      6854      6858      6859      6861      6854      6858      6859      6862
      6855      6854      6858      6859      6856      6854      6858      6859
      6857      6854      6858      6859      6858      6859      6862      6863
      6858      6859      6862      6864      6858      6859      6862      6870
      6859      6862      6864      6865      6859      6862      6870      6871
      6859      6862      6870      6872      6859      6862      6870      6873
      6860      6859      6862      6863      6860      6859      6862      6864
      6860      6859      6862      6870      6861      6859      6862      6863
      6861      6859      6862      6864      6861      6859      6862      6870
      6862      6864      6865      6866      6862      6864      6865      6867
      6862      6870      6873      6874      6863      6862      6864      6865
      6863      6862      6870      6871      6863      6862      6870      6872
      6863      6862      6870      6873      6864      6862      6870      6871
      6864      6862      6870      6872      6864      6862      6870      6873
      6864      6865      6867      6868      6864      6865      6867      6869
      6864      6865      6867      6879      6865      6864      6862      6870
      6865      6867      6879      6880      6865      6867      6879      6881
      6865      6867      6879      6882      6866      6865      6867      6868
      6866      6865      6867      6869      6866      6865      6867      6879
      6867      6879      6882      6883      6867      6879      6882      6884
      6867      6879      6882      6885      6868      6867      6879      6880
      6868      6867      6879      6881      6868      6867      6879      6882
      6869      6867      6879      6880      6869      6867      6879      6881
      6869      6867      6879      6882      6870      6873      6874      6875
      6870      6873      6874      6876      6871      6870      6873      6874
      6872      6870      6873      6874      6873      6874      6876      6877
      6873      6874      6876      6878      6873      6874      6876      6926
      6874      6876      6926      6927      6874      6876      6926      6928
      6874      6876      6926      6929      6875      6874      6876      6877
      6875      6874      6876      6878      6875      6874      6876      6926
      6876      6926      6929      6930      6876      6926      6929      6931
      6876      6926      6929      6932      6877      6876      6926      6927
      6877      6876      6926      6928      6877      6876      6926      6929
      6878      6876      6926      6927      6878      6876      6926      6928
      6878      6876      6926      6929      6879      6882      6885      6886
      6879      6882      6885      6887      6879      6882      6885      6888
      6880      6879      6882      6883      6880      6879      6882      6884
      6880      6879      6882      6885      6881      6879      6882      6883
      6881      6879      6882      6884      6881      6879      6882      6885
      6882      6885      6888      6889      6882      6885      6888      6890
      6882      6885      6888      6891      6883      6882      6885      6886
      6883      6882      6885      6887      6883      6882      6885      6888
      6884      6882      6885      6886      6884      6882      6885      6887
      6884      6882      6885      6888      6885      6888      6891      6892
      6885      6888      6891      6893      6885      6888      6891      6894
      6886      6885      6888      6889      6886      6885      6888      6890
      6886      6885      6888      6891      6887      6885      6888      6889
      6887      6885      6888      6890      6887      6885      6888      6891
      6888      6891      6894      6895      6888      6891      6894      6896
      6888      6891      6894      6897      6889      6888      6891      6892
      6889      6888      6891      6893      6889      6888      6891      6894
      6890      6888      6891      6892      6890      6888      6891      6893
      6890      6888      6891      6894      6891      6894      6897      6898
      6891      6894      6897      6899      6892      6891      6894      6895
      6892      6891      6894      6896      6892      6891      6894      6897
      6893      6891      6894      6895      6893      6891      6894      6896
      6893      6891      6894      6897      6894      6897      6899      6900
      6894      6897      6899      6901      6895      6894      6897      6898
      6895      6894      6897      6899      6896      6894      6897      6898
      6896      6894      6897      6899      6897      6899      6901      6902
      6897      6899      6901      6903      6897      6899      6901      6904
      6898      6897      6899      6900      6898      6897      6899      6901
      6899      6901      6904      6905      6899      6901      6904      6906
      6899      6901      6904      6907      6900      6899      6901      6902
      6900      6899      6901      6903      6900      6899      6901      6904
      6901      6904      6907      6908      6901      6904      6907      6909
      6901      6904      6907      6910      6902      6901      6904      6905
      6902      6901      6904      6906      6902      6901      6904      6907
      6903      6901      6904      6905      6903      6901      6904      6906
      6903      6901      6904      6907      6904      6907      6910      6911
      6904      6907      6910      6912      6904      6907      6910      6913
      6905      6904      6907      6908      6905      6904      6907      6909
      6905      6904      6907      6910      6906      6904      6907      6908
      6906      6904      6907      6909      6906      6904      6907      6910
      6907      6910      6913      6914      6907      6910      6913      6915
      6907      6910      6913      6916      6908      6907      6910      6911
      6908      6907      6910      6912      6908      6907      6910      6913
      6909      6907      6910      6911      6909      6907      6910      6912
      6909      6907      6910      6913      6910      6913      6916      6917
      6910      6913      6916      6918      6910      6913      6916      6919
      6911      6910      6913      6914      6911      6910      6913      6915
      6911      6910      6913      6916      6912      6910      6913      6914
      6912      6910      6913      6915      6912      6910      6913      6916
      6913      6916      6919      6920      6913      6916      6919      6921
      6913      6916      6919      6922      6914      6913      6916      6917
      6914      6913      6916      6918      6914      6913      6916      6919
      6915      6913      6916      6917      6915      6913      6916      6918
      6915      6913      6916      6919      6916      6919      6922      6923
      6916      6919      6922      6924      6916      6919      6922      6925
      6917      6916      6919      6920      6917      6916      6919      6921
      6917      6916      6919      6922      6918      6916      6919      6920
      6918      6916      6919      6921      6918      6916      6919      6922
      6920      6919      6922      6923      6920      6919      6922      6924
      6920      6919      6922      6925      6921      6919      6922      6923
      6921      6919      6922      6924      6921      6919      6922      6925
      6926      6929      6932      6933      6926      6929      6932      6934
      6926      6929      6932      6935      6927      6926      6929      6930
      6927      6926      6929      6931      6927      6926      6929      6932
      6928      6926      6929      6930      6928      6926      6929      6931
      6928      6926      6929      6932      6929      6932      6935      6936
      6929      6932      6935      6937      6929      6932      6935      6938
      6930      6929      6932      6933      6930      6929      6932      6934
      6930      6929      6932      6935      6931      6929      6932      6933
      6931      6929      6932      6934      6931      6929      6932      6935
      6932      6935      6938      6939      6932      6935      6938      6940
      6932      6935      6938      6941      6933      6932      6935      6936
      6933      6932      6935      6937      6933      6932      6935      6938
      6934      6932      6935      6936      6934      6932      6935      6937
      6934      6932      6935      6938      6935      6938      6941      6942
      6935      6938      6941      6943      6935      6938      6941      6944
      6936      6935      6938      6939      6936      6935      6938      6940
      6936      6935      6938      6941      6937      6935      6938      6939
      6937      6935      6938      6940      6937      6935      6938      6941
      6938      6941      6944      6945      6938      6941      6944      6946
      6938      6941      6944      6947      6939      6938      6941      6942
      6939      6938      6941      6943      6939      6938      6941      6944
      6940      6938      6941      6942      6940      6938      6941      6943
      6940      6938      6941      6944      6941      6944      6947      6948
      6941      6944      6947      6949      6941      6944      6947      6950
      6942      6941      6944      6945      6942      6941      6944      6946
      6942      6941      6944      6947      6943      6941      6944      6945
      6943      6941      6944      6946      6943      6941      6944      6947
      6944      6947      6950      6951      6944      6947      6950      6952
      6944      6947      6950      6953      6945      6944      6947      6948
      6945      6944      6947      6949      6945      6944      6947      6950
      6946      6944      6947      6948      6946      6944      6947      6949
      6946      6944      6947      6950      6947      6950      6953      6954
      6947      6950      6953      6955      6947      6950      6953      6956
      6948      6947      6950      6951      6948      6947      6950      6952
      6948      6947      6950      6953      6949      6947      6950      6951
      6949      6947      6950      6952      6949      6947      6950      6953
      6950      6953      6956      6957      6950      6953      6956      6958
      6950      6953      6956      6959      6951      6950      6953      6954
      6951      6950      6953      6955      6951      6950      6953      6956
      6952      6950      6953      6954      6952      6950      6953      6955
      6952      6950      6953      6956      6953      6956      6959      6960
      6953      6956      6959      6961      6953      6956      6959      6962
      6954      6953      6956      6957      6954      6953      6956      6958
      6954      6953      6956      6959      6955      6953      6956      6957
      6955      6953      6956      6958      6955      6953      6956      6959
      6956      6959      6962      6963      6956      6959      6962      6964
      6956      6959      6962      6965      6957      6956      6959      6960
      6957      6956      6959      6961      6957      6956      6959      6962
      6958      6956      6959      6960      6958      6956      6959      6961
      6958      6956      6959      6962      6959      6962      6965      6966
      6959      6962      6965      6967      6959      6962      6965      6968
      6960      6959      6962      6963      6960      6959      6962      6964
      6960      6959      6962      6965      6961      6959      6962      6963
      6961      6959      6962      6964      6961      6959      6962      6965
      6963      6962      6965      6966      6963      6962      6965      6967
      6963      6962      6965      6968      6964      6962      6965      6966
      6964      6962      6965      6967      6964      6962      6965      6968
      6969      6970      6985      6986      6969      6970      6985      6987
      6969      6970      6985      6991      6970      6969      6973      6974
      6970      6969      6973      6975      6970      6969      6973      6976
      6970      6969      6977      6978      6970      6969      6977      6979
      6970      6969      6977      6980      6970      6969      6981      6982
      6970      6969      6981      6983      6970      6969      6981      6984
      6970      6985      6991      6988      6971      6970      6969      6973
      6971      6970      6969      6977      6971      6970      6969      6981
      6971      6970      6985      6986      6971      6970      6985      6987
      6971      6970      6985      6991      6972      6970      6969      6973
      6972      6970      6969      6977      6972      6970      6969      6981
      6972      6970      6985      6986      6972      6970      6985      6987
      6972      6970      6985      6991      6973      6969      6970      6985
      6973      6969      6977      6978      6973      6969      6977      6979
      6973      6969      6977      6980      6973      6969      6981      6982
      6973      6969      6981      6983      6973      6969      6981      6984
      6974      6973      6969      6977      6974      6973      6969      6981
      6975      6973      6969      6977      6975      6973      6969      6981
      6976      6973      6969      6977      6976      6973      6969      6981
      6977      6969      6970      6985      6977      6969      6981      6982
      6977      6969      6981      6983      6977      6969      6981      6984
      6978      6977      6969      6981      6979      6977      6969      6981
      6980      6977      6969      6981      6981      6969      6970      6985
      6985      6991      6988      6989      6985      6991      6988      6990
      6985      6991      6988      6992      6986      6985      6991      6988
      6987      6985      6991      6988      6988      6992      6993      6994
      6988      6992      6993      6995      6988      6992      6993      6996
      6989      6988      6992      6993      6990      6988      6992      6993
      6991      6988      6992      6993      6992      6993      6996      6997
      6992      6993      6996      6998      6992      6993      6996      7004
      6993      6996      6998      6999      6993      6996      7004      7005
      6993      6996      7004      7006      6993      6996      7004      7007
      6994      6993      6996      6997      6994      6993      6996      6998
      6994      6993      6996      7004      6995      6993      6996      6997
      6995      6993      6996      6998      6995      6993      6996      7004
      6996      6998      6999      7000      6996      6998      6999      7001
      6996      7004      7007      7008      6997      6996      6998      6999
      6997      6996      7004      7005      6997      6996      7004      7006
      6997      6996      7004      7007      6998      6996      7004      7005
      6998      6996      7004      7006      6998      6996      7004      7007
      6998      6999      7001      7002      6998      6999      7001      7003
      6998      6999      7001      7013      6999      6998      6996      7004
      6999      7001      7013      7014      6999      7001      7013      7015
      6999      7001      7013      7016      7000      6999      7001      7002
      7000      6999      7001      7003      7000      6999      7001      7013
      7001      7013      7016      7017      7001      7013      7016      7018
      7001      7013      7016      7019      7002      7001      7013      7014
      7002      7001      7013      7015      7002      7001      7013      7016
      7003      7001      7013      7014      7003      7001      7013      7015
      7003      7001      7013      7016      7004      7007      7008      7009
      7004      7007      7008      7010      7005      7004      7007      7008
      7006      7004      7007      7008      7007      7008      7010      7011
      7007      7008      7010      7012      7007      7008      7010      7060
      7008      7010      7060      7061      7008      7010      7060      7062
      7008      7010      7060      7063      7009      7008      7010      7011
      7009      7008      7010      7012      7009      7008      7010      7060
      7010      7060      7063      7064      7010      7060      7063      7065
      7010      7060      7063      7066      7011      7010      7060      7061
      7011      7010      7060      7062      7011      7010      7060      7063
      7012      7010      7060      7061      7012      7010      7060      7062
      7012      7010      7060      7063      7013      7016      7019      7020
      7013      7016      7019      7021      7013      7016      7019      7022
      7014      7013      7016      7017      7014      7013      7016      7018
      7014      7013      7016      7019      7015      7013      7016      7017
      7015      7013      7016      7018      7015      7013      7016      7019
      7016      7019      7022      7023      7016      7019      7022      7024
      7016      7019      7022      7025      7017      7016      7019      7020
      7017      7016      7019      7021      7017      7016      7019      7022
      7018      7016      7019      7020      7018      7016      7019      7021
      7018      7016      7019      7022      7019      7022      7025      7026
      7019      7022      7025      7027      7019      7022      7025      7028
      7020      7019      7022      7023      7020      7019      7022      7024
      7020      7019      7022      7025      7021      7019      7022      7023
      7021      7019      7022      7024      7021      7019      7022      7025
      7022      7025      7028      7029      7022      7025      7028      7030
      7022      7025      7028      7031      7023      7022      7025      7026
      7023      7022      7025      7027      7023      7022      7025      7028
      7024      7022      7025      7026      7024      7022      7025      7027
      7024      7022      7025      7028      7025      7028      7031      7032
      7025      7028      7031      7033      7026      7025      7028      7029
      7026      7025      7028      7030      7026      7025      7028      7031
      7027      7025      7028      7029      7027      7025      7028      7030
      7027      7025      7028      7031      7028      7031      7033      7034
      7028      7031      7033      7035      7029      7028      7031      7032
      7029      7028      7031      7033      7030      7028      7031      7032
      7030      7028      7031      7033      7031      7033      7035      7036
      7031      7033      7035      7037      7031      7033      7035      7038
      7032      7031      7033      7034      7032      7031      7033      7035
      7033      7035      7038      7039      7033      7035      7038      7040
      7033      7035      7038      7041      7034      7033      7035      7036
      7034      7033      7035      7037      7034      7033      7035      7038
      7035      7038      7041      7042      7035      7038      7041      7043
      7035      7038      7041      7044      7036      7035      7038      7039
      7036      7035      7038      7040      7036      7035      7038      7041
      7037      7035      7038      7039      7037      7035      7038      7040
      7037      7035      7038      7041      7038      7041      7044      7045
      7038      7041      7044      7046      7038      7041      7044      7047
      7039      7038      7041      7042      7039      7038      7041      7043
      7039      7038      7041      7044      7040      7038      7041      7042
      7040      7038      7041      7043      7040      7038      7041      7044
      7041      7044      7047      7048      7041      7044      7047      7049
      7041      7044      7047      7050      7042      7041      7044      7045
      7042      7041      7044      7046      7042      7041      7044      7047
      7043      7041      7044      7045      7043      7041      7044      7046
      7043      7041      7044      7047      7044      7047      7050      7051
      7044      7047      7050      7052      7044      7047      7050      7053
      7045      7044      7047      7048      7045      7044      7047      7049
      7045      7044      7047      7050      7046      7044      7047      7048
      7046      7044      7047      7049      7046      7044      7047      7050
      7047      7050      7053      7054      7047      7050      7053      7055
      7047      7050      7053      7056      7048      7047      7050      7051
      7048      7047      7050      7052      7048      7047      7050      7053
      7049      7047      7050      7051      7049      7047      7050      7052
      7049      7047      7050      7053      7050      7053      7056      7057
      7050      7053      7056      7058      7050      7053      7056      7059
      7051      7050      7053      7054      7051      7050      7053      7055
      7051      7050      7053      7056      7052      7050      7053      7054
      7052      7050      7053      7055      7052      7050      7053      7056
      7054      7053      7056      7057      7054      7053      7056      7058
      7054      7053      7056      7059      7055      7053      7056      7057
      7055      7053      7056      7058      7055      7053      7056      7059
      7060      7063      7066      7067      7060      7063      7066      7068
      7060      7063      7066      7069      7061      7060      7063      7064
      7061      7060      7063      7065      7061      7060      7063      7066
      7062      7060      7063      7064      7062      7060      7063      7065
      7062      7060      7063      7066      7063      7066      7069      7070
      7063      7066      7069      7071      7063      7066      7069      7072
      7064      7063      7066      7067      7064      7063      7066      7068
      7064      7063      7066      7069      7065      7063      7066      7067
      7065      7063      7066      7068      7065      7063      7066      7069
      7066      7069      7072      7073      7066      7069      7072      7074
      7066      7069      7072      7075      7067      7066      7069      7070
      7067      7066      7069      7071      7067      7066      7069      7072
      7068      7066      7069      7070      7068      7066      7069      7071
      7068      7066      7069      7072      7069      7072      7075      7076
      7069      7072      7075      7077      7069      7072      7075      7078
      7070      7069      7072      7073      7070      7069      7072      7074
      7070      7069      7072      7075      7071      7069      7072      7073
      7071      7069      7072      7074      7071      7069      7072      7075
      7072      7075      7078      7079      7072      7075      7078      7080
      7072      7075      7078      7081      7073      7072      7075      7076
      7073      7072      7075      7077      7073      7072      7075      7078
      7074      7072      7075      7076      7074      7072      7075      7077
      7074      7072      7075      7078      7075      7078      7081      7082
      7075      7078      7081      7083      7075      7078      7081      7084
      7076      7075      7078      7079      7076      7075      7078      7080
      7076      7075      7078      7081      7077      7075      7078      7079
      7077      7075      7078      7080      7077      7075      7078      7081
      7078      7081      7084      7085      7078      7081      7084      7086
      7078      7081      7084      7087      7079      7078      7081      7082
      7079      7078      7081      7083      7079      7078      7081      7084
      7080      7078      7081      7082      7080      7078      7081      7083
      7080      7078      7081      7084      7081      7084      7087      7088
      7081      7084      7087      7089      7081      7084      7087      7090
      7082      7081      7084      7085      7082      7081      7084      7086
      7082      7081      7084      7087      7083      7081      7084      7085
      7083      7081      7084      7086      7083      7081      7084      7087
      7084      7087      7090      7091      7084      7087      7090      7092
      7084      7087      7090      7093      7085      7084      7087      7088
      7085      7084      7087      7089      7085      7084      7087      7090
      7086      7084      7087      7088      7086      7084      7087      7089
      7086      7084      7087      7090      7087      7090      7093      7094
      7087      7090      7093      7095      7087      7090      7093      7096
      7088      7087      7090      7091      7088      7087      7090      7092
      7088      7087      7090      7093      7089      7087      7090      7091
      7089      7087      7090      7092      7089      7087      7090      7093
      7090      7093      7096      7097      7090      7093      7096      7098
      7090      7093      7096      7099      7091      7090      7093      7094
      7091      7090      7093      7095      7091      7090      7093      7096
      7092      7090      7093      7094      7092      7090      7093      7095
      7092      7090      7093      7096      7093      7096      7099      7100
      7093      7096      7099      7101      7093      7096      7099      7102
      7094      7093      7096      7097      7094      7093      7096      7098
      7094      7093      7096      7099      7095      7093      7096      7097
      7095      7093      7096      7098      7095      7093      7096      7099
      7097      7096      7099      7100      7097      7096      7099      7101
      7097      7096      7099      7102      7098      7096      7099      7100
      7098      7096      7099      7101      7098      7096      7099      7102
      7103      7104      7119      7120      7103      7104      7119      7121
      7103      7104      7119      7125      7104      7103      7107      7108
      7104      7103      7107      7109      7104      7103      7107      7110
      7104      7103      7111      7112      7104      7103      7111      7113
      7104      7103      7111      7114      7104      7103      7115      7116
      7104      7103      7115      7117      7104      7103      7115      7118
      7104      7119      7125      7122      7105      7104      7103      7107
      7105      7104      7103      7111      7105      7104      7103      7115
      7105      7104      7119      7120      7105      7104      7119      7121
      7105      7104      7119      7125      7106      7104      7103      7107
      7106      7104      7103      7111      7106      7104      7103      7115
      7106      7104      7119      7120      7106      7104      7119      7121
      7106      7104      7119      7125      7107      7103      7104      7119
      7107      7103      7111      7112      7107      7103      7111      7113
      7107      7103      7111      7114      7107      7103      7115      7116
      7107      7103      7115      7117      7107      7103      7115      7118
      7108      7107      7103      7111      7108      7107      7103      7115
      7109      7107      7103      7111      7109      7107      7103      7115
      7110      7107      7103      7111      7110      7107      7103      7115
      7111      7103      7104      7119      7111      7103      7115      7116
      7111      7103      7115      7117      7111      7103      7115      7118
      7112      7111      7103      7115      7113      7111      7103      7115
      7114      7111      7103      7115      7115      7103      7104      7119
      7119      7125      7122      7123      7119      7125      7122      7124
      7119      7125      7122      7126      7120      7119      7125      7122
      7121      7119      7125      7122      7122      7126      7127      7128
      7122      7126      7127      7129      7122      7126      7127      7130
      7123      7122      7126      7127      7124      7122      7126      7127
      7125      7122      7126      7127      7126      7127      7130      7131
      7126      7127      7130      7132      7126      7127      7130      7138
      7127      7130      7132      7133      7127      7130      7138      7139
      7127      7130      7138      7140      7127      7130      7138      7141
      7128      7127      7130      7131      7128      7127      7130      7132
      7128      7127      7130      7138      7129      7127      7130      7131
      7129      7127      7130      7132      7129      7127      7130      7138
      7130      7132      7133      7134      7130      7132      7133      7135
      7130      7138      7141      7142      7131      7130      7132      7133
      7131      7130      7138      7139      7131      7130      7138      7140
      7131      7130      7138      7141      7132      7130      7138      7139
      7132      7130      7138      7140      7132      7130      7138      7141
      7132      7133      7135      7136      7132      7133      7135      7137
      7132      7133      7135      7147      7133      7132      7130      7138
      7133      7135      7147      7148      7133      7135      7147      7149
      7133      7135      7147      7150      7134      7133      7135      7136
      7134      7133      7135      7137      7134      7133      7135      7147
      7135      7147      7150      7151      7135      7147      7150      7152
      7135      7147      7150      7153      7136      7135      7147      7148
      7136      7135      7147      7149      7136      7135      7147      7150
      7137      7135      7147      7148      7137      7135      7147      7149
      7137      7135      7147      7150      7138      7141      7142      7143
      7138      7141      7142      7144      7139      7138      7141      7142
      7140      7138      7141      7142      7141      7142      7144      7145
      7141      7142      7144      7146      7141      7142      7144      7194
      7142      7144      7194      7195      7142      7144      7194      7196
      7142      7144      7194      7197      7143      7142      7144      7145
      7143      7142      7144      7146      7143      7142      7144      7194
      7144      7194      7197      7198      7144      7194      7197      7199
      7144      7194      7197      7200      7145      7144      7194      7195
      7145      7144      7194      7196      7145      7144      7194      7197
      7146      7144      7194      7195      7146      7144      7194      7196
      7146      7144      7194      7197      7147      7150      7153      7154
      7147      7150      7153      7155      7147      7150      7153      7156
      7148      7147      7150      7151      7148      7147      7150      7152
      7148      7147      7150      7153      7149      7147      7150      7151
      7149      7147      7150      7152      7149      7147      7150      7153
      7150      7153      7156      7157      7150      7153      7156      7158
      7150      7153      7156      7159      7151      7150      7153      7154
      7151      7150      7153      7155      7151      7150      7153      7156
      7152      7150      7153      7154      7152      7150      7153      7155
      7152      7150      7153      7156      7153      7156      7159      7160
      7153      7156      7159      7161      7153      7156      7159      7162
      7154      7153      7156      7157      7154      7153      7156      7158
      7154      7153      7156      7159      7155      7153      7156      7157
      7155      7153      7156      7158      7155      7153      7156      7159
      7156      7159      7162      7163      7156      7159      7162      7164
      7156      7159      7162      7165      7157      7156      7159      7160
      7157      7156      7159      7161      7157      7156      7159      7162
      7158      7156      7159      7160      7158      7156      7159      7161
      7158      7156      7159      7162      7159      7162      7165      7166
      7159      7162      7165      7167      7160      7159      7162      7163
      7160      7159      7162      7164      7160      7159      7162      7165
      7161      7159      7162      7163      7161      7159      7162      7164
      7161      7159      7162      7165      7162      7165      7167      7168
      7162      7165      7167      7169      7163      7162      7165      7166
      7163      7162      7165      7167      7164      7162      7165      7166
      7164      7162      7165      7167      7165      7167      7169      7170
      7165      7167      7169      7171      7165      7167      7169      7172
      7166      7165      7167      7168      7166      7165      7167      7169
      7167      7169      7172      7173      7167      7169      7172      7174
      7167      7169      7172      7175      7168      7167      7169      7170
      7168      7167      7169      7171      7168      7167      7169      7172
      7169      7172      7175      7176      7169      7172      7175      7177
      7169      7172      7175      7178      7170      7169      7172      7173
      7170      7169      7172      7174      7170      7169      7172      7175
      7171      7169      7172      7173      7171      7169      7172      7174
      7171      7169      7172      7175      7172      7175      7178      7179
      7172      7175      7178      7180      7172      7175      7178      7181
      7173      7172      7175      7176      7173      7172      7175      7177
      7173      7172      7175      7178      7174      7172      7175      7176
      7174      7172      7175      7177      7174      7172      7175      7178
      7175      7178      7181      7182      7175      7178      7181      7183
      7175      7178      7181      7184      7176      7175      7178      7179
      7176      7175      7178      7180      7176      7175      7178      7181
      7177      7175      7178      7179      7177      7175      7178      7180
      7177      7175      7178      7181      7178      7181      7184      7185
      7178      7181      7184      7186      7178      7181      7184      7187
      7179      7178      7181      7182      7179      7178      7181      7183
      7179      7178      7181      7184      7180      7178      7181      7182
      7180      7178      7181      7183      7180      7178      7181      7184
      7181      7184      7187      7188      7181      7184      7187      7189
      7181      7184      7187      7190      7182      7181      7184      7185
      7182      7181      7184      7186      7182      7181      7184      7187
      7183      7181      7184      7185      7183      7181      7184      7186
      7183      7181      7184      7187      7184      7187      7190      7191
      7184      7187      7190      7192      7184      7187      7190      7193
      7185      7184      7187      7188      7185      7184      7187      7189
      7185      7184      7187      7190      7186      7184      7187      7188
      7186      7184      7187      7189      7186      7184      7187      7190
      7188      7187      7190      7191      7188      7187      7190      7192
      7188      7187      7190      7193      7189      7187      7190      7191
      7189      7187      7190      7192      7189      7187      7190      7193
      7194      7197      7200      7201      7194      7197      7200      7202
      7194      7197      7200      7203      7195      7194      7197      7198
      7195      7194      7197      7199      7195      7194      7197      7200
      7196      7194      7197      7198      7196      7194      7197      7199
      7196      7194      7197      7200      7197      7200      7203      7204
      7197      7200      7203      7205      7197      7200      7203      7206
      7198      7197      7200      7201      7198      7197      7200      7202
      7198      7197      7200      7203      7199      7197      7200      7201
      7199      7197      7200      7202      7199      7197      7200      7203
      7200      7203      7206      7207      7200      7203      7206      7208
      7200      7203      7206      7209      7201      7200      7203      7204
      7201      7200      7203      7205      7201      7200      7203      7206
      7202      7200      7203      7204      7202      7200      7203      7205
      7202      7200      7203      7206      7203      7206      7209      7210
      7203      7206      7209      7211      7203      7206      7209      7212
      7204      7203      7206      7207      7204      7203      7206      7208
      7204      7203      7206      7209      7205      7203      7206      7207
      7205      7203      7206      7208      7205      7203      7206      7209
      7206      7209      7212      7213      7206      7209      7212      7214
      7206      7209      7212      7215      7207      7206      7209      7210
      7207      7206      7209      7211      7207      7206      7209      7212
      7208      7206      7209      7210      7208      7206      7209      7211
      7208      7206      7209      7212      7209      7212      7215      7216
      7209      7212      7215      7217      7209      7212      7215      7218
      7210      7209      7212      7213      7210      7209      7212      7214
      7210      7209      7212      7215      7211      7209      7212      7213
      7211      7209      7212      7214      7211      7209      7212      7215
      7212      7215      7218      7219      7212      7215      7218      7220
      7212      7215      7218      7221      7213      7212      7215      7216
      7213      7212      7215      7217      7213      7212      7215      7218
      7214      7212      7215      7216      7214      7212      7215      7217
      7214      7212      7215      7218      7215      7218      7221      7222
      7215      7218      7221      7223      7215      7218      7221      7224
      7216      7215      7218      7219      7216      7215      7218      7220
      7216      7215      7218      7221      7217      7215      7218      7219
      7217      7215      7218      7220      7217      7215      7218      7221
      7218      7221      7224      7225      7218      7221      7224      7226
      7218      7221      7224      7227      7219      7218      7221      7222
      7219      7218      7221      7223      7219      7218      7221      7224
      7220      7218      7221      7222      7220      7218      7221      7223
      7220      7218      7221      7224      7221      7224      7227      7228
      7221      7224      7227      7229      7221      7224      7227      7230
      7222      7221      7224      7225      7222      7221      7224      7226
      7222      7221      7224      7227      7223      7221      7224      7225
      7223      7221      7224      7226      7223      7221      7224      7227
      7224      7227      7230      7231      7224      7227      7230      7232
      7224      7227      7230      7233      7225      7224      7227      7228
      7225      7224      7227      7229      7225      7224      7227      7230
      7226      7224      7227      7228      7226      7224      7227      7229
      7226      7224      7227      7230      7227      7230      7233      7234
      7227      7230      7233      7235      7227      7230      7233      7236
      7228      7227      7230      7231      7228      7227      7230      7232
      7228      7227      7230      7233      7229      7227      7230      7231
      7229      7227      7230      7232      7229      7227      7230      7233
      7231      7230      7233      7234      7231      7230      7233      7235
      7231      7230      7233      7236      7232      7230      7233      7234
      7232      7230      7233      7235      7232      7230      7233      7236
      7237      7238      7253      7254      7237      7238      7253      7255
      7237      7238      7253      7259      7238      7237      7241      7242
      7238      7237      7241      7243      7238      7237      7241      7244
      7238      7237      7245      7246      7238      7237      7245      7247
      7238      7237      7245      7248      7238      7237      7249      7250
      7238      7237      7249      7251      7238      7237      7249      7252
      7238      7253      7259      7256      7239      7238      7237      7241
      7239      7238      7237      7245      7239      7238      7237      7249
      7239      7238      7253      7254      7239      7238      7253      7255
      7239      7238      7253      7259      7240      7238      7237      7241
      7240      7238      7237      7245      7240      7238      7237      7249
      7240      7238      7253      7254      7240      7238      7253      7255
      7240      7238      7253      7259      7241      7237      7238      7253
      7241      7237      7245      7246      7241      7237      7245      7247
      7241      7237      7245      7248      7241      7237      7249      7250
      7241      7237      7249      7251      7241      7237      7249      7252
      7242      7241      7237      7245      7242      7241      7237      7249
      7243      7241      7237      7245      7243      7241      7237      7249
      7244      7241      7237      7245      7244      7241      7237      7249
      7245      7237      7238      7253      7245      7237      7249      7250
      7245      7237      7249      7251      7245      7237      7249      7252
      7246      7245      7237      7249      7247      7245      7237      7249
      7248      7245      7237      7249      7249      7237      7238      7253
      7253      7259      7256      7257      7253      7259      7256      7258
      7253      7259      7256      7260      7254      7253      7259      7256
      7255      7253      7259      7256      7256      7260      7261      7262
      7256      7260      7261      7263      7256      7260      7261      7264
      7257      7256      7260      7261      7258      7256      7260      7261
      7259      7256      7260      7261      7260      7261      7264      7265
      7260      7261      7264      7266      7260      7261      7264      7272
      7261      7264      7266      7267      7261      7264      7272      7273
      7261      7264      7272      7274      7261      7264      7272      7275
      7262      7261      7264      7265      7262      7261      7264      7266
      7262      7261      7264      7272      7263      7261      7264      7265
      7263      7261      7264      7266      7263      7261      7264      7272
      7264      7266      7267      7268      7264      7266      7267      7269
      7264      7272      7275      7276      7265      7264      7266      7267
      7265      7264      7272      7273      7265      7264      7272      7274
      7265      7264      7272      7275      7266      7264      7272      7273
      7266      7264      7272      7274      7266      7264      7272      7275
      7266      7267      7269      7270      7266      7267      7269      7271
      7266      7267      7269      7281      7267      7266      7264      7272
      7267      7269      7281      7282      7267      7269      7281      7283
      7267      7269      7281      7284      7268      7267      7269      7270
      7268      7267      7269      7271      7268      7267      7269      7281
      7269      7281      7284      7285      7269      7281      7284      7286
      7269      7281      7284      7287      7270      7269      7281      7282
      7270      7269      7281      7283      7270      7269      7281      7284
      7271      7269      7281      7282      7271      7269      7281      7283
      7271      7269      7281      7284      7272      7275      7276      7277
      7272      7275      7276      7278      7273      7272      7275      7276
      7274      7272      7275      7276      7275      7276      7278      7279
      7275      7276      7278      7280      7275      7276      7278      7328
      7276      7278      7328      7329      7276      7278      7328      7330
      7276      7278      7328      7331      7277      7276      7278      7279
      7277      7276      7278      7280      7277      7276      7278      7328
      7278      7328      7331      7332      7278      7328      7331      7333
      7278      7328      7331      7334      7279      7278      7328      7329
      7279      7278      7328      7330      7279      7278      7328      7331
      7280      7278      7328      7329      7280      7278      7328      7330
      7280      7278      7328      7331      7281      7284      7287      7288
      7281      7284      7287      7289      7281      7284      7287      7290
      7282      7281      7284      7285      7282      7281      7284      7286
      7282      7281      7284      7287      7283      7281      7284      7285
      7283      7281      7284      7286      7283      7281      7284      7287
      7284      7287      7290      7291      7284      7287      7290      7292
      7284      7287      7290      7293      7285      7284      7287      7288
      7285      7284      7287      7289      7285      7284      7287      7290
      7286      7284      7287      7288      7286      7284      7287      7289
      7286      7284      7287      7290      7287      7290      7293      7294
      7287      7290      7293      7295      7287      7290      7293      7296
      7288      7287      7290      7291      7288      7287      7290      7292
      7288      7287      7290      7293      7289      7287      7290      7291
      7289      7287      7290      7292      7289      7287      7290      7293
      7290      7293      7296      7297      7290      7293      7296      7298
      7290      7293      7296      7299      7291      7290      7293      7294
      7291      7290      7293      7295      7291      7290      7293      7296
      7292      7290      7293      7294      7292      7290      7293      7295
      7292      7290      7293      7296      7293      7296      7299      7300
      7293      7296      7299      7301      7294      7293      7296      7297
      7294      7293      7296      7298      7294      7293      7296      7299
      7295      7293      7296      7297      7295      7293      7296      7298
      7295      7293      7296      7299      7296      7299      7301      7302
      7296      7299      7301      7303      7297      7296      7299      7300
      7297      7296      7299      7301      7298      7296      7299      7300
      7298      7296      7299      7301      7299      7301      7303      7304
      7299      7301      7303      7305      7299      7301      7303      7306
      7300      7299      7301      7302      7300      7299      7301      7303
      7301      7303      7306      7307      7301      7303      7306      7308
      7301      7303      7306      7309      7302      7301      7303      7304
      7302      7301      7303      7305      7302      7301      7303      7306
      7303      7306      7309      7310      7303      7306      7309      7311
      7303      7306      7309      7312      7304      7303      7306      7307
      7304      7303      7306      7308      7304      7303      7306      7309
      7305      7303      7306      7307      7305      7303      7306      7308
      7305      7303      7306      7309      7306      7309      7312      7313
      7306      7309      7312      7314      7306      7309      7312      7315
      7307      7306      7309      7310      7307      7306      7309      7311
      7307      7306      7309      7312      7308      7306      7309      7310
      7308      7306      7309      7311      7308      7306      7309      7312
      7309      7312      7315      7316      7309      7312      7315      7317
      7309      7312      7315      7318      7310      7309      7312      7313
      7310      7309      7312      7314      7310      7309      7312      7315
      7311      7309      7312      7313      7311      7309      7312      7314
      7311      7309      7312      7315      7312      7315      7318      7319
      7312      7315      7318      7320      7312      7315      7318      7321
      7313      7312      7315      7316      7313      7312      7315      7317
      7313      7312      7315      7318      7314      7312      7315      7316
      7314      7312      7315      7317      7314      7312      7315      7318
      7315      7318      7321      7322      7315      7318      7321      7323
      7315      7318      7321      7324      7316      7315      7318      7319
      7316      7315      7318      7320      7316      7315      7318      7321
      7317      7315      7318      7319      7317      7315      7318      7320
      7317      7315      7318      7321      7318      7321      7324      7325
      7318      7321      7324      7326      7318      7321      7324      7327
      7319      7318      7321      7322      7319      7318      7321      7323
      7319      7318      7321      7324      7320      7318      7321      7322
      7320      7318      7321      7323      7320      7318      7321      7324
      7322      7321      7324      7325      7322      7321      7324      7326
      7322      7321      7324      7327      7323      7321      7324      7325
      7323      7321      7324      7326      7323      7321      7324      7327
      7328      7331      7334      7335      7328      7331      7334      7336
      7328      7331      7334      7337      7329      7328      7331      7332
      7329      7328      7331      7333      7329      7328      7331      7334
      7330      7328      7331      7332      7330      7328      7331      7333
      7330      7328      7331      7334      7331      7334      7337      7338
      7331      7334      7337      7339      7331      7334      7337      7340
      7332      7331      7334      7335      7332      7331      7334      7336
      7332      7331      7334      7337      7333      7331      7334      7335
      7333      7331      7334      7336      7333      7331      7334      7337
      7334      7337      7340      7341      7334      7337      7340      7342
      7334      7337      7340      7343      7335      7334      7337      7338
      7335      7334      7337      7339      7335      7334      7337      7340
      7336      7334      7337      7338      7336      7334      7337      7339
      7336      7334      7337      7340      7337      7340      7343      7344
      7337      7340      7343      7345      7337      7340      7343      7346
      7338      7337      7340      7341      7338      7337      7340      7342
      7338      7337      7340      7343      7339      7337      7340      7341
      7339      7337      7340      7342      7339      7337      7340      7343
      7340      7343      7346      7347      7340      7343      7346      7348
      7340      7343      7346      7349      7341      7340      7343      7344
      7341      7340      7343      7345      7341      7340      7343      7346
      7342      7340      7343      7344      7342      7340      7343      7345
      7342      7340      7343      7346      7343      7346      7349      7350
      7343      7346      7349      7351      7343      7346      7349      7352
      7344      7343      7346      7347      7344      7343      7346      7348
      7344      7343      7346      7349      7345      7343      7346      7347
      7345      7343      7346      7348      7345      7343      7346      7349
      7346      7349      7352      7353      7346      7349      7352      7354
      7346      7349      7352      7355      7347      7346      7349      7350
      7347      7346      7349      7351      7347      7346      7349      7352
      7348      7346      7349      7350      7348      7346      7349      7351
      7348      7346      7349      7352      7349      7352      7355      7356
      7349      7352      7355      7357      7349      7352      7355      7358
      7350      7349      7352      7353      7350      7349      7352      7354
      7350      7349      7352      7355      7351      7349      7352      7353
      7351      7349      7352      7354      7351      7349      7352      7355
      7352      7355      7358      7359      7352      7355      7358      7360
      7352      7355      7358      7361      7353      7352      7355      7356
      7353      7352      7355      7357      7353      7352      7355      7358
      7354      7352      7355      7356      7354      7352      7355      7357
      7354      7352      7355      7358      7355      7358      7361      7362
      7355      7358      7361      7363      7355      7358      7361      7364
      7356      7355      7358      7359      7356      7355      7358      7360
      7356      7355      7358      7361      7357      7355      7358      7359
      7357      7355      7358      7360      7357      7355      7358      7361
      7358      7361      7364      7365      7358      7361      7364      7366
      7358      7361      7364      7367      7359      7358      7361      7362
      7359      7358      7361      7363      7359      7358      7361      7364
      7360      7358      7361      7362      7360      7358      7361      7363
      7360      7358      7361      7364      7361      7364      7367      7368
      7361      7364      7367      7369      7361      7364      7367      7370
      7362      7361      7364      7365      7362      7361      7364      7366
      7362      7361      7364      7367      7363      7361      7364      7365
      7363      7361      7364      7366      7363      7361      7364      7367
      7365      7364      7367      7368      7365      7364      7367      7369
      7365      7364      7367      7370      7366      7364      7367      7368
      7366      7364      7367      7369      7366      7364      7367      7370
      7371      7372      7387      7388      7371      7372      7387      7389
      7371      7372      7387      7393      7372      7371      7375      7376
      7372      7371      7375      7377      7372      7371      7375      7378
      7372      7371      7379      7380      7372      7371      7379      7381
      7372      7371      7379      7382      7372      7371      7383      7384
      7372      7371      7383      7385      7372      7371      7383      7386
      7372      7387      7393      7390      7373      7372      7371      7375
      7373      7372      7371      7379      7373      7372      7371      7383
      7373      7372      7387      7388      7373      7372      7387      7389
      7373      7372      7387      7393      7374      7372      7371      7375
      7374      7372      7371      7379      7374      7372      7371      7383
      7374      7372      7387      7388      7374      7372      7387      7389
      7374      7372      7387      7393      7375      7371      7372      7387
      7375      7371      7379      7380      7375      7371      7379      7381
      7375      7371      7379      7382      7375      7371      7383      7384
      7375      7371      7383      7385      7375      7371      7383      7386
      7376      7375      7371      7379      7376      7375      7371      7383
      7377      7375      7371      7379      7377      7375      7371      7383
      7378      7375      7371      7379      7378      7375      7371      7383
      7379      7371      7372      7387      7379      7371      7383      7384
      7379      7371      7383      7385      7379      7371      7383      7386
      7380      7379      7371      7383      7381      7379      7371      7383
      7382      7379      7371      7383      7383      7371      7372      7387
      7387      7393      7390      7391      7387      7393      7390      7392
      7387      7393      7390      7394      7388      7387      7393      7390
      7389      7387      7393      7390      7390      7394      7395      7396
      7390      7394      7395      7397      7390      7394      7395      7398
      7391      7390      7394      7395      7392      7390      7394      7395
      7393      7390      7394      7395      7394      7395      7398      7399
      7394      7395      7398      7400      7394      7395      7398      7406
      7395      7398      7400      7401      7395      7398      7406      7407
      7395      7398      7406      7408      7395      7398      7406      7409
      7396      7395      7398      7399      7396      7395      7398      7400
      7396      7395      7398      7406      7397      7395      7398      7399
      7397      7395      7398      7400      7397      7395      7398      7406
      7398      7400      7401      7402      7398      7400      7401      7403
      7398      7406      7409      7410      7399      7398      7400      7401
      7399      7398      7406      7407      7399      7398      7406      7408
      7399      7398      7406      7409      7400      7398      7406      7407
      7400      7398      7406      7408      7400      7398      7406      7409
      7400      7401      7403      7404      7400      7401      7403      7405
      7400      7401      7403      7415      7401      7400      7398      7406
      7401      7403      7415      7416      7401      7403      7415      7417
      7401      7403      7415      7418      7402      7401      7403      7404
      7402      7401      7403      7405      7402      7401      7403      7415
      7403      7415      7418      7419      7403      7415      7418      7420
      7403      7415      7418      7421      7404      7403      7415      7416
      7404      7403      7415      7417      7404      7403      7415      7418
      7405      7403      7415      7416      7405      7403      7415      7417
      7405      7403      7415      7418      7406      7409      7410      7411
      7406      7409      7410      7412      7407      7406      7409      7410
      7408      7406      7409      7410      7409      7410      7412      7413
      7409      7410      7412      7414      7409      7410      7412      7462
      7410      7412      7462      7463      7410      7412      7462      7464
      7410      7412      7462      7465      7411      7410      7412      7413
      7411      7410      7412      7414      7411      7410      7412      7462
      7412      7462      7465      7466      7412      7462      7465      7467
      7412      7462      7465      7468      7413      7412      7462      7463
      7413      7412      7462      7464      7413      7412      7462      7465
      7414      7412      7462      7463      7414      7412      7462      7464
      7414      7412      7462      7465      7415      7418      7421      7422
      7415      7418      7421      7423      7415      7418      7421      7424
      7416      7415      7418      7419      7416      7415      7418      7420
      7416      7415      7418      7421      7417      7415      7418      7419
      7417      7415      7418      7420      7417      7415      7418      7421
      7418      7421      7424      7425      7418      7421      7424      7426
      7418      7421      7424      7427      7419      7418      7421      7422
      7419      7418      7421      7423      7419      7418      7421      7424
      7420      7418      7421      7422      7420      7418      7421      7423
      7420      7418      7421      7424      7421      7424      7427      7428
      7421      7424      7427      7429      7421      7424      7427      7430
      7422      7421      7424      7425      7422      7421      7424      7426
      7422      7421      7424      7427      7423      7421      7424      7425
      7423      7421      7424      7426      7423      7421      7424      7427
      7424      7427      7430      7431      7424      7427      7430      7432
      7424      7427      7430      7433      7425      7424      7427      7428
      7425      7424      7427      7429      7425      7424      7427      7430
      7426      7424      7427      7428      7426      7424      7427      7429
      7426      7424      7427      7430      7427      7430      7433      7434
      7427      7430      7433      7435      7428      7427      7430      7431
      7428      7427      7430      7432      7428      7427      7430      7433
      7429      7427      7430      7431      7429      7427      7430      7432
      7429      7427      7430      7433      7430      7433      7435      7436
      7430      7433      7435      7437      7431      7430      7433      7434
      7431      7430      7433      7435      7432      7430      7433      7434
      7432      7430      7433      7435      7433      7435      7437      7438
      7433      7435      7437      7439      7433      7435      7437      7440
      7434      7433      7435      7436      7434      7433      7435      7437
      7435      7437      7440      7441      7435      7437      7440      7442
      7435      7437      7440      7443      7436      7435      7437      7438
      7436      7435      7437      7439      7436      7435      7437      7440
      7437      7440      7443      7444      7437      7440      7443      7445
      7437      7440      7443      7446      7438      7437      7440      7441
      7438      7437      7440      7442      7438      7437      7440      7443
      7439      7437      7440      7441      7439      7437      7440      7442
      7439      7437      7440      7443      7440      7443      7446      7447
      7440      7443      7446      7448      7440      7443      7446      7449
      7441      7440      7443      7444      7441      7440      7443      7445
      7441      7440      7443      7446      7442      7440      7443      7444
      7442      7440      7443      7445      7442      7440      7443      7446
      7443      7446      7449      7450      7443      7446      7449      7451
      7443      7446      7449      7452      7444      7443      7446      7447
      7444      7443      7446      7448      7444      7443      7446      7449
      7445      7443      7446      7447      7445      7443      7446      7448
      7445      7443      7446      7449      7446      7449      7452      7453
      7446      7449      7452      7454      7446      7449      7452      7455
      7447      7446      7449      7450      7447      7446      7449      7451
      7447      7446      7449      7452      7448      7446      7449      7450
      7448      7446      7449      7451      7448      7446      7449      7452
      7449      7452      7455      7456      7449      7452      7455      7457
      7449      7452      7455      7458      7450      7449      7452      7453
      7450      7449      7452      7454      7450      7449      7452      7455
      7451      7449      7452      7453      7451      7449      7452      7454
      7451      7449      7452      7455      7452      7455      7458      7459
      7452      7455      7458      7460      7452      7455      7458      7461
      7453      7452      7455      7456      7453      7452      7455      7457
      7453      7452      7455      7458      7454      7452      7455      7456
      7454      7452      7455      7457      7454      7452      7455      7458
      7456      7455      7458      7459      7456      7455      7458      7460
      7456      7455      7458      7461      7457      7455      7458      7459
      7457      7455      7458      7460      7457      7455      7458      7461
      7462      7465      7468      7469      7462      7465      7468      7470
      7462      7465      7468      7471      7463      7462      7465      7466
      7463      7462      7465      7467      7463      7462      7465      7468
      7464      7462      7465      7466      7464      7462      7465      7467
      7464      7462      7465      7468      7465      7468      7471      7472
      7465      7468      7471      7473      7465      7468      7471      7474
      7466      7465      7468      7469      7466      7465      7468      7470
      7466      7465      7468      7471      7467      7465      7468      7469
      7467      7465      7468      7470      7467      7465      7468      7471
      7468      7471      7474      7475      7468      7471      7474      7476
      7468      7471      7474      7477      7469      7468      7471      7472
      7469      7468      7471      7473      7469      7468      7471      7474
      7470      7468      7471      7472      7470      7468      7471      7473
      7470      7468      7471      7474      7471      7474      7477      7478
      7471      7474      7477      7479      7471      7474      7477      7480
      7472      7471      7474      7475      7472      7471      7474      7476
      7472      7471      7474      7477      7473      7471      7474      7475
      7473      7471      7474      7476      7473      7471      7474      7477
      7474      7477      7480      7481      7474      7477      7480      7482
      7474      7477      7480      7483      7475      7474      7477      7478
      7475      7474      7477      7479      7475      7474      7477      7480
      7476      7474      7477      7478      7476      7474      7477      7479
      7476      7474      7477      7480      7477      7480      7483      7484
      7477      7480      7483      7485      7477      7480      7483      7486
      7478      7477      7480      7481      7478      7477      7480      7482
      7478      7477      7480      7483      7479      7477      7480      7481
      7479      7477      7480      7482      7479      7477      7480      7483
      7480      7483      7486      7487      7480      7483      7486      7488
      7480      7483      7486      7489      7481      7480      7483      7484
      7481      7480      7483      7485      7481      7480      7483      7486
      7482      7480      7483      7484      7482      7480      7483      7485
      7482      7480      7483      7486      7483      7486      7489      7490
      7483      7486      7489      7491      7483      7486      7489      7492
      7484      7483      7486      7487      7484      7483      7486      7488
      7484      7483      7486      7489      7485      7483      7486      7487
      7485      7483      7486      7488      7485      7483      7486      7489
      7486      7489      7492      7493      7486      7489      7492      7494
      7486      7489      7492      7495      7487      7486      7489      7490
      7487      7486      7489      7491      7487      7486      7489      7492
      7488      7486      7489      7490      7488      7486      7489      7491
      7488      7486      7489      7492      7489      7492      7495      7496
      7489      7492      7495      7497      7489      7492      7495      7498
      7490      7489      7492      7493      7490      7489      7492      7494
      7490      7489      7492      7495      7491      7489      7492      7493
      7491      7489      7492      7494      7491      7489      7492      7495
      7492      7495      7498      7499      7492      7495      7498      7500
      7492      7495      7498      7501      7493      7492      7495      7496
      7493      7492      7495      7497      7493      7492      7495      7498
      7494      7492      7495      7496      7494      7492      7495      7497
      7494      7492      7495      7498      7495      7498      7501      7502
      7495      7498      7501      7503      7495      7498      7501      7504
      7496      7495      7498      7499      7496      7495      7498      7500
      7496      7495      7498      7501      7497      7495      7498      7499
      7497      7495      7498      7500      7497      7495      7498      7501
      7499      7498      7501      7502      7499      7498      7501      7503
      7499      7498      7501      7504      7500      7498      7501      7502
      7500      7498      7501      7503      7500      7498      7501      7504
      7505      7506      7521      7522      7505      7506      7521      7523
      7505      7506      7521      7527      7506      7505      7509      7510
      7506      7505      7509      7511      7506      7505      7509      7512
      7506      7505      7513      7514      7506      7505      7513      7515
      7506      7505      7513      7516      7506      7505      7517      7518
      7506      7505      7517      7519      7506      7505      7517      7520
      7506      7521      7527      7524      7507      7506      7505      7509
      7507      7506      7505      7513      7507      7506      7505      7517
      7507      7506      7521      7522      7507      7506      7521      7523
      7507      7506      7521      7527      7508      7506      7505      7509
      7508      7506      7505      7513      7508      7506      7505      7517
      7508      7506      7521      7522      7508      7506      7521      7523
      7508      7506      7521      7527      7509      7505      7506      7521
      7509      7505      7513      7514      7509      7505      7513      7515
      7509      7505      7513      7516      7509      7505      7517      7518
      7509      7505      7517      7519      7509      7505      7517      7520
      7510      7509      7505      7513      7510      7509      7505      7517
      7511      7509      7505      7513      7511      7509      7505      7517
      7512      7509      7505      7513      7512      7509      7505      7517
      7513      7505      7506      7521      7513      7505      7517      7518
      7513      7505      7517      7519      7513      7505      7517      7520
      7514      7513      7505      7517      7515      7513      7505      7517
      7516      7513      7505      7517      7517      7505      7506      7521
      7521      7527      7524      7525      7521      7527      7524      7526
      7521      7527      7524      7528      7522      7521      7527      7524
      7523      7521      7527      7524      7524      7528      7529      7530
      7524      7528      7529      7531      7524      7528      7529      7532
      7525      7524      7528      7529      7526      7524      7528      7529
      7527      7524      7528      7529      7528      7529      7532      7533
      7528      7529      7532      7534      7528      7529      7532      7540
      7529      7532      7534      7535      7529      7532      7540      7541
      7529      7532      7540      7542      7529      7532      7540      7543
      7530      7529      7532      7533      7530      7529      7532      7534
      7530      7529      7532      7540      7531      7529      7532      7533
      7531      7529      7532      7534      7531      7529      7532      7540
      7532      7534      7535      7536      7532      7534      7535      7537
      7532      7540      7543      7544      7533      7532      7534      7535
      7533      7532      7540      7541      7533      7532      7540      7542
      7533      7532      7540      7543      7534      7532      7540      7541
      7534      7532      7540      7542      7534      7532      7540      7543
      7534      7535      7537      7538      7534      7535      7537      7539
      7534      7535      7537      7549      7535      7534      7532      7540
      7535      7537      7549      7550      7535      7537      7549      7551
      7535      7537      7549      7552      7536      7535      7537      7538
      7536      7535      7537      7539      7536      7535      7537      7549
      7537      7549      7552      7553      7537      7549      7552      7554
      7537      7549      7552      7555      7538      7537      7549      7550
      7538      7537      7549      7551      7538      7537      7549      7552
      7539      7537      7549      7550      7539      7537      7549      7551
      7539      7537      7549      7552      7540      7543      7544      7545
      7540      7543      7544      7546      7541      7540      7543      7544
      7542      7540      7543      7544      7543      7544      7546      7547
      7543      7544      7546      7548      7543      7544      7546      7596
      7544      7546      7596      7597      7544      7546      7596      7598
      7544      7546      7596      7599      7545      7544      7546      7547
      7545      7544      7546      7548      7545      7544      7546      7596
      7546      7596      7599      7600      7546      7596      7599      7601
      7546      7596      7599      7602      7547      7546      7596      7597
      7547      7546      7596      7598      7547      7546      7596      7599
      7548      7546      7596      7597      7548      7546      7596      7598
      7548      7546      7596      7599      7549      7552      7555      7556
      7549      7552      7555      7557      7549      7552      7555      7558
      7550      7549      7552      7553      7550      7549      7552      7554
      7550      7549      7552      7555      7551      7549      7552      7553
      7551      7549      7552      7554      7551      7549      7552      7555
      7552      7555      7558      7559      7552      7555      7558      7560
      7552      7555      7558      7561      7553      7552      7555      7556
      7553      7552      7555      7557      7553      7552      7555      7558
      7554      7552      7555      7556      7554      7552      7555      7557
      7554      7552      7555      7558      7555      7558      7561      7562
      7555      7558      7561      7563      7555      7558      7561      7564
      7556      7555      7558      7559      7556      7555      7558      7560
      7556      7555      7558      7561      7557      7555      7558      7559
      7557      7555      7558      7560      7557      7555      7558      7561
      7558      7561      7564      7565      7558      7561      7564      7566
      7558      7561      7564      7567      7559      7558      7561      7562
      7559      7558      7561      7563      7559      7558      7561      7564
      7560      7558      7561      7562      7560      7558      7561      7563
      7560      7558      7561      7564      7561      7564      7567      7568
      7561      7564      7567      7569      7562      7561      7564      7565
      7562      7561      7564      7566      7562      7561      7564      7567
      7563      7561      7564      7565      7563      7561      7564      7566
      7563      7561      7564      7567      7564      7567      7569      7570
      7564      7567      7569      7571      7565      7564      7567      7568
      7565      7564      7567      7569      7566      7564      7567      7568
      7566      7564      7567      7569      7567      7569      7571      7572
      7567      7569      7571      7573      7567      7569      7571      7574
      7568      7567      7569      7570      7568      7567      7569      7571
      7569      7571      7574      7575      7569      7571      7574      7576
      7569      7571      7574      7577      7570      7569      7571      7572
      7570      7569      7571      7573      7570      7569      7571      7574
      7571      7574      7577      7578      7571      7574      7577      7579
      7571      7574      7577      7580      7572      7571      7574      7575
      7572      7571      7574      7576      7572      7571      7574      7577
      7573      7571      7574      7575      7573      7571      7574      7576
      7573      7571      7574      7577      7574      7577      7580      7581
      7574      7577      7580      7582      7574      7577      7580      7583
      7575      7574      7577      7578      7575      7574      7577      7579
      7575      7574      7577      7580      7576      7574      7577      7578
      7576      7574      7577      7579      7576      7574      7577      7580
      7577      7580      7583      7584      7577      7580      7583      7585
      7577      7580      7583      7586      7578      7577      7580      7581
      7578      7577      7580      7582      7578      7577      7580      7583
      7579      7577      7580      7581      7579      7577      7580      7582
      7579      7577      7580      7583      7580      7583      7586      7587
      7580      7583      7586      7588      7580      7583      7586      7589
      7581      7580      7583      7584      7581      7580      7583      7585
      7581      7580      7583      7586      7582      7580      7583      7584
      7582      7580      7583      7585      7582      7580      7583      7586
      7583      7586      7589      7590      7583      7586      7589      7591
      7583      7586      7589      7592      7584      7583      7586      7587
      7584      7583      7586      7588      7584      7583      7586      7589
      7585      7583      7586      7587      7585      7583      7586      7588
      7585      7583      7586      7589      7586      7589      7592      7593
      7586      7589      7592      7594      7586      7589      7592      7595
      7587      7586      7589      7590      7587      7586      7589      7591
      7587      7586      7589      7592      7588      7586      7589      7590
      7588      7586      7589      7591      7588      7586      7589      7592
      7590      7589      7592      7593      7590      7589      7592      7594
      7590      7589      7592      7595      7591      7589      7592      7593
      7591      7589      7592      7594      7591      7589      7592      7595
      7596      7599      7602      7603      7596      7599      7602      7604
      7596      7599      7602      7605      7597      7596      7599      7600
      7597      7596      7599      7601      7597      7596      7599      7602
      7598      7596      7599      7600      7598      7596      7599      7601
      7598      7596      7599      7602      7599      7602      7605      7606
      7599      7602      7605      7607      7599      7602      7605      7608
      7600      7599      7602      7603      7600      7599      7602      7604
      7600      7599      7602      7605      7601      7599      7602      7603
      7601      7599      7602      7604      7601      7599      7602      7605
      7602      7605      7608      7609      7602      7605      7608      7610
      7602      7605      7608      7611      7603      7602      7605      7606
      7603      7602      7605      7607      7603      7602      7605      7608
      7604      7602      7605      7606      7604      7602      7605      7607
      7604      7602      7605      7608      7605      7608      7611      7612
      7605      7608      7611      7613      7605      7608      7611      7614
      7606      7605      7608      7609      7606      7605      7608      7610
      7606      7605      7608      7611      7607      7605      7608      7609
      7607      7605      7608      7610      7607      7605      7608      7611
      7608      7611      7614      7615      7608      7611      7614      7616
      7608      7611      7614      7617      7609      7608      7611      7612
      7609      7608      7611      7613      7609      7608      7611      7614
      7610      7608      7611      7612      7610      7608      7611      7613
      7610      7608      7611      7614      7611      7614      7617      7618
      7611      7614      7617      7619      7611      7614      7617      7620
      7612      7611      7614      7615      7612      7611      7614      7616
      7612      7611      7614      7617      7613      7611      7614      7615
      7613      7611      7614      7616      7613      7611      7614      7617
      7614      7617      7620      7621      7614      7617      7620      7622
      7614      7617      7620      7623      7615      7614      7617      7618
      7615      7614      7617      7619      7615      7614      7617      7620
      7616      7614      7617      7618      7616      7614      7617      7619
      7616      7614      7617      7620      7617      7620      7623      7624
      7617      7620      7623      7625      7617      7620      7623      7626
      7618      7617      7620      7621      7618      7617      7620      7622
      7618      7617      7620      7623      7619      7617      7620      7621
      7619      7617      7620      7622      7619      7617      7620      7623
      7620      7623      7626      7627      7620      7623      7626      7628
      7620      7623      7626      7629      7621      7620      7623      7624
      7621      7620      7623      7625      7621      7620      7623      7626
      7622      7620      7623      7624      7622      7620      7623      7625
      7622      7620      7623      7626      7623      7626      7629      7630
      7623      7626      7629      7631      7623      7626      7629      7632
      7624      7623      7626      7627      7624      7623      7626      7628
      7624      7623      7626      7629      7625      7623      7626      7627
      7625      7623      7626      7628      7625      7623      7626      7629
      7626      7629      7632      7633      7626      7629      7632      7634
      7626      7629      7632      7635      7627      7626      7629      7630
      7627      7626      7629      7631      7627      7626      7629      7632
      7628      7626      7629      7630      7628      7626      7629      7631
      7628      7626      7629      7632      7629      7632      7635      7636
      7629      7632      7635      7637      7629      7632      7635      7638
      7630      7629      7632      7633      7630      7629      7632      7634
      7630      7629      7632      7635      7631      7629      7632      7633
      7631      7629      7632      7634      7631      7629      7632      7635
      7633      7632      7635      7636      7633      7632      7635      7637
      7633      7632      7635      7638      7634      7632      7635      7636
      7634      7632      7635      7637      7634      7632      7635      7638
      7639      7640      7655      7656      7639      7640      7655      7657
      7639      7640      7655      7661      7640      7639      7643      7644
      7640      7639      7643      7645      7640      7639      7643      7646
      7640      7639      7647      7648      7640      7639      7647      7649
      7640      7639      7647      7650      7640      7639      7651      7652
      7640      7639      7651      7653      7640      7639      7651      7654
      7640      7655      7661      7658      7641      7640      7639      7643
      7641      7640      7639      7647      7641      7640      7639      7651
      7641      7640      7655      7656      7641      7640      7655      7657
      7641      7640      7655      7661      7642      7640      7639      7643
      7642      7640      7639      7647      7642      7640      7639      7651
      7642      7640      7655      7656      7642      7640      7655      7657
      7642      7640      7655      7661      7643      7639      7640      7655
      7643      7639      7647      7648      7643      7639      7647      7649
      7643      7639      7647      7650      7643      7639      7651      7652
      7643      7639      7651      7653      7643      7639      7651      7654
      7644      7643      7639      7647      7644      7643      7639      7651
      7645      7643      7639      7647      7645      7643      7639      7651
      7646      7643      7639      7647      7646      7643      7639      7651
      7647      7639      7640      7655      7647      7639      7651      7652
      7647      7639      7651      7653      7647      7639      7651      7654
      7648      7647      7639      7651      7649      7647      7639      7651
      7650      7647      7639      7651      7651      7639      7640      7655
      7655      7661      7658      7659      7655      7661      7658      7660
      7655      7661      7658      7662      7656      7655      7661      7658
      7657      7655      7661      7658      7658      7662      7663      7664
      7658      7662      7663      7665      7658      7662      7663      7666
      7659      7658      7662      7663      7660      7658      7662      7663
      7661      7658      7662      7663      7662      7663      7666      7667
      7662      7663      7666      7668      7662      7663      7666      7674
      7663      7666      7668      7669      7663      7666      7674      7675
      7663      7666      7674      7676      7663      7666      7674      7677
      7664      7663      7666      7667      7664      7663      7666      7668
      7664      7663      7666      7674      7665      7663      7666      7667
      7665      7663      7666      7668      7665      7663      7666      7674
      7666      7668      7669      7670      7666      7668      7669      7671
      7666      7674      7677      7678      7667      7666      7668      7669
      7667      7666      7674      7675      7667      7666      7674      7676
      7667      7666      7674      7677      7668      7666      7674      7675
      7668      7666      7674      7676      7668      7666      7674      7677
      7668      7669      7671      7672      7668      7669      7671      7673
      7668      7669      7671      7683      7669      7668      7666      7674
      7669      7671      7683      7684      7669      7671      7683      7685
      7669      7671      7683      7686      7670      7669      7671      7672
      7670      7669      7671      7673      7670      7669      7671      7683
      7671      7683      7686      7687      7671      7683      7686      7688
      7671      7683      7686      7689      7672      7671      7683      7684
      7672      7671      7683      7685      7672      7671      7683      7686
      7673      7671      7683      7684      7673      7671      7683      7685
      7673      7671      7683      7686      7674      7677      7678      7679
      7674      7677      7678      7680      7675      7674      7677      7678
      7676      7674      7677      7678      7677      7678      7680      7681
      7677      7678      7680      7682      7677      7678      7680      7730
      7678      7680      7730      7731      7678      7680      7730      7732
      7678      7680      7730      7733      7679      7678      7680      7681
      7679      7678      7680      7682      7679      7678      7680      7730
      7680      7730      7733      7734      7680      7730      7733      7735
      7680      7730      7733      7736      7681      7680      7730      7731
      7681      7680      7730      7732      7681      7680      7730      7733
      7682      7680      7730      7731      7682      7680      7730      7732
      7682      7680      7730      7733      7683      7686      7689      7690
      7683      7686      7689      7691      7683      7686      7689      7692
      7684      7683      7686      7687      7684      7683      7686      7688
      7684      7683      7686      7689      7685      7683      7686      7687
      7685      7683      7686      7688      7685      7683      7686      7689
      7686      7689      7692      7693      7686      7689      7692      7694
      7686      7689      7692      7695      7687      7686      7689      7690
      7687      7686      7689      7691      7687      7686      7689      7692
      7688      7686      7689      7690      7688      7686      7689      7691
      7688      7686      7689      7692      7689      7692      7695      7696
      7689      7692      7695      7697      7689      7692      7695      7698
      7690      7689      7692      7693      7690      7689      7692      7694
      7690      7689      7692      7695      7691      7689      7692      7693
      7691      7689      7692      7694      7691      7689      7692      7695
      7692      7695      7698      7699      7692      7695      7698      7700
      7692      7695      7698      7701      7693      7692      7695      7696
      7693      7692      7695      7697      7693      7692      7695      7698
      7694      7692      7695      7696      7694      7692      7695      7697
      7694      7692      7695      7698      7695      7698      7701      7702
      7695      7698      7701      7703      7696      7695      7698      7699
      7696      7695      7698      7700      7696      7695      7698      7701
      7697      7695      7698      7699      7697      7695      7698      7700
      7697      7695      7698      7701      7698      7701      7703      7704
      7698      7701      7703      7705      7699      7698      7701      7702
      7699      7698      7701      7703      7700      7698      7701      7702
      7700      7698      7701      7703      7701      7703      7705      7706
      7701      7703      7705      7707      7701      7703      7705      7708
      7702      7701      7703      7704      7702      7701      7703      7705
      7703      7705      7708      7709      7703      7705      7708      7710
      7703      7705      7708      7711      7704      7703      7705      7706
      7704      7703      7705      7707      7704      7703      7705      7708
      7705      7708      7711      7712      7705      7708      7711      7713
      7705      7708      7711      7714      7706      7705      7708      7709
      7706      7705      7708      7710      7706      7705      7708      7711
      7707      7705      7708      7709      7707      7705      7708      7710
      7707      7705      7708      7711      7708      7711      7714      7715
      7708      7711      7714      7716      7708      7711      7714      7717
      7709      7708      7711      7712      7709      7708      7711      7713
      7709      7708      7711      7714      7710      7708      7711      7712
      7710      7708      7711      7713      7710      7708      7711      7714
      7711      7714      7717      7718      7711      7714      7717      7719
      7711      7714      7717      7720      7712      7711      7714      7715
      7712      7711      7714      7716      7712      7711      7714      7717
      7713      7711      7714      7715      7713      7711      7714      7716
      7713      7711      7714      7717      7714      7717      7720      7721
      7714      7717      7720      7722      7714      7717      7720      7723
      7715      7714      7717      7718      7715      7714      7717      7719
      7715      7714      7717      7720      7716      7714      7717      7718
      7716      7714      7717      7719      7716      7714      7717      7720
      7717      7720      7723      7724      7717      7720      7723      7725
      7717      7720      7723      7726      7718      7717      7720      7721
      7718      7717      7720      7722      7718      7717      7720      7723
      7719      7717      7720      7721      7719      7717      7720      7722
      7719      7717      7720      7723      7720      7723      7726      7727
      7720      7723      7726      7728      7720      7723      7726      7729
      7721      7720      7723      7724      7721      7720      7723      7725
      7721      7720      7723      7726      7722      7720      7723      7724
      7722      7720      7723      7725      7722      7720      7723      7726
      7724      7723      7726      7727      7724      7723      7726      7728
      7724      7723      7726      7729      7725      7723      7726      7727
      7725      7723      7726      7728      7725      7723      7726      7729
      7730      7733      7736      7737      7730      7733      7736      7738
      7730      7733      7736      7739      7731      7730      7733      7734
      7731      7730      7733      7735      7731      7730      7733      7736
      7732      7730      7733      7734      7732      7730      7733      7735
      7732      7730      7733      7736      7733      7736      7739      7740
      7733      7736      7739      7741      7733      7736      7739      7742
      7734      7733      7736      7737      7734      7733      7736      7738
      7734      7733      7736      7739      7735      7733      7736      7737
      7735      7733      7736      7738      7735      7733      7736      7739
      7736      7739      7742      7743      7736      7739      7742      7744
      7736      7739      7742      7745      7737      7736      7739      7740
      7737      7736      7739      7741      7737      7736      7739      7742
      7738      7736      7739      7740      7738      7736      7739      7741
      7738      7736      7739      7742      7739      7742      7745      7746
      7739      7742      7745      7747      7739      7742      7745      7748
      7740      7739      7742      7743      7740      7739      7742      7744
      7740      7739      7742      7745      7741      7739      7742      7743
      7741      7739      7742      7744      7741      7739      7742      7745
      7742      7745      7748      7749      7742      7745      7748      7750
      7742      7745      7748      7751      7743      7742      7745      7746
      7743      7742      7745      7747      7743      7742      7745      7748
      7744      7742      7745      7746      7744      7742      7745      7747
      7744      7742      7745      7748      7745      7748      7751      7752
      7745      7748      7751      7753      7745      7748      7751      7754
      7746      7745      7748      7749      7746      7745      7748      7750
      7746      7745      7748      7751      7747      7745      7748      7749
      7747      7745      7748      7750      7747      7745      7748      7751
      7748      7751      7754      7755      7748      7751      7754      7756
      7748      7751      7754      7757      7749      7748      7751      7752
      7749      7748      7751      7753      7749      7748      7751      7754
      7750      7748      7751      7752      7750      7748      7751      7753
      7750      7748      7751      7754      7751      7754      7757      7758
      7751      7754      7757      7759      7751      7754      7757      7760
      7752      7751      7754      7755      7752      7751      7754      7756
      7752      7751      7754      7757      7753      7751      7754      7755
      7753      7751      7754      7756      7753      7751      7754      7757
      7754      7757      7760      7761      7754      7757      7760      7762
      7754      7757      7760      7763      7755      7754      7757      7758
      7755      7754      7757      7759      7755      7754      7757      7760
      7756      7754      7757      7758      7756      7754      7757      7759
      7756      7754      7757      7760      7757      7760      7763      7764
      7757      7760      7763      7765      7757      7760      7763      7766
      7758      7757      7760      7761      7758      7757      7760      7762
      7758      7757      7760      7763      7759      7757      7760      7761
      7759      7757      7760      7762      7759      7757      7760      7763
      7760      7763      7766      7767      7760      7763      7766      7768
      7760      7763      7766      7769      7761      7760      7763      7764
      7761      7760      7763      7765      7761      7760      7763      7766
      7762      7760      7763      7764      7762      7760      7763      7765
      7762      7760      7763      7766      7763      7766      7769      7770
      7763      7766      7769      7771      7763      7766      7769      7772
      7764      7763      7766      7767      7764      7763      7766      7768
      7764      7763      7766      7769      7765      7763      7766      7767
      7765      7763      7766      7768      7765      7763      7766      7769
      7767      7766      7769      7770      7767      7766      7769      7771
      7767      7766      7769      7772      7768      7766      7769      7770
      7768      7766      7769      7771      7768      7766      7769      7772
      7773      7774      7789      7790      7773      7774      7789      7791
      7773      7774      7789      7795      7774      7773      7777      7778
      7774      7773      7777      7779      7774      7773      7777      7780
      7774      7773      7781      7782      7774      7773      7781      7783
      7774      7773      7781      7784      7774      7773      7785      7786
      7774      7773      7785      7787      7774      7773      7785      7788
      7774      7789      7795      7792      7775      7774      7773      7777
      7775      7774      7773      7781      7775      7774      7773      7785
      7775      7774      7789      7790      7775      7774      7789      7791
      7775      7774      7789      7795      7776      7774      7773      7777
      7776      7774      7773      7781      7776      7774      7773      7785
      7776      7774      7789      7790      7776      7774      7789      7791
      7776      7774      7789      7795      7777      7773      7774      7789
      7777      7773      7781      7782      7777      7773      7781      7783
      7777      7773      7781      7784      7777      7773      7785      7786
      7777      7773      7785      7787      7777      7773      7785      7788
      7778      7777      7773      7781      7778      7777      7773      7785
      7779      7777      7773      7781      7779      7777      7773      7785
      7780      7777      7773      7781      7780      7777      7773      7785
      7781      7773      7774      7789      7781      7773      7785      7786
      7781      7773      7785      7787      7781      7773      7785      7788
      7782      7781      7773      7785      7783      7781      7773      7785
      7784      7781      7773      7785      7785      7773      7774      7789
      7789      7795      7792      7793      7789      7795      7792      7794
      7789      7795      7792      7796      7790      7789      7795      7792
      7791      7789      7795      7792      7792      7796      7797      7798
      7792      7796      7797      7799      7792      7796      7797      7800
      7793      7792      7796      7797      7794      7792      7796      7797
      7795      7792      7796      7797      7796      7797      7800      7801
      7796      7797      7800      7802      7796      7797      7800      7808
      7797      7800      7802      7803      7797      7800      7808      7809
      7797      7800      7808      7810      7797      7800      7808      7811
      7798      7797      7800      7801      7798      7797      7800      7802
      7798      7797      7800      7808      7799      7797      7800      7801
      7799      7797      7800      7802      7799      7797      7800      7808
      7800      7802      7803      7804      7800      7802      7803      7805
      7800      7808      7811      7812      7801      7800      7802      7803
      7801      7800      7808      7809      7801      7800      7808      7810
      7801      7800      7808      7811      7802      7800      7808      7809
      7802      7800      7808      7810      7802      7800      7808      7811
      7802      7803      7805      7806      7802      7803      7805      7807
      7802      7803      7805      7817      7803      7802      7800      7808
      7803      7805      7817      7818      7803      7805      7817      7819
      7803      7805      7817      7820      7804      7803      7805      7806
      7804      7803      7805      7807      7804      7803      7805      7817
      7805      7817      7820      7821      7805      7817      7820      7822
      7805      7817      7820      7823      7806      7805      7817      7818
      7806      7805      7817      7819      7806      7805      7817      7820
      7807      7805      7817      7818      7807      7805      7817      7819
      7807      7805      7817      7820      7808      7811      7812      7813
      7808      7811      7812      7814      7809      7808      7811      7812
      7810      7808      7811      7812      7811      7812      7814      7815
      7811      7812      7814      7816      7811      7812      7814      7864
      7812      7814      7864      7865      7812      7814      7864      7866
      7812      7814      7864      7867      7813      7812      7814      7815
      7813      7812      7814      7816      7813      7812      7814      7864
      7814      7864      7867      7868      7814      7864      7867      7869
      7814      7864      7867      7870      7815      7814      7864      7865
      7815      7814      7864      7866      7815      7814      7864      7867
      7816      7814      7864      7865      7816      7814      7864      7866
      7816      7814      7864      7867      7817      7820      7823      7824
      7817      7820      7823      7825      7817      7820      7823      7826
      7818      7817      7820      7821      7818      7817      7820      7822
      7818      7817      7820      7823      7819      7817      7820      7821
      7819      7817      7820      7822      7819      7817      7820      7823
      7820      7823      7826      7827      7820      7823      7826      7828
      7820      7823      7826      7829      7821      7820      7823      7824
      7821      7820      7823      7825      7821      7820      7823      7826
      7822      7820      7823      7824      7822      7820      7823      7825
      7822      7820      7823      7826      7823      7826      7829      7830
      7823      7826      7829      7831      7823      7826      7829      7832
      7824      7823      7826      7827      7824      7823      7826      7828
      7824      7823      7826      7829      7825      7823      7826      7827
      7825      7823      7826      7828      7825      7823      7826      7829
      7826      7829      7832      7833      7826      7829      7832      7834
      7826      7829      7832      7835      7827      7826      7829      7830
      7827      7826      7829      7831      7827      7826      7829      7832
      7828      7826      7829      7830      7828      7826      7829      7831
      7828      7826      7829      7832      7829      7832      7835      7836
      7829      7832      7835      7837      7830      7829      7832      7833
      7830      7829      7832      7834      7830      7829      7832      7835
      7831      7829      7832      7833      7831      7829      7832      7834
      7831      7829      7832      7835      7832      7835      7837      7838
      7832      7835      7837      7839      7833      7832      7835      7836
      7833      7832      7835      7837      7834      7832      7835      7836
      7834      7832      7835      7837      7835      7837      7839      7840
      7835      7837      7839      7841      7835      7837      7839      7842
      7836      7835      7837      7838      7836      7835      7837      7839
      7837      7839      7842      7843      7837      7839      7842      7844
      7837      7839      7842      7845      7838      7837      7839      7840
      7838      7837      7839      7841      7838      7837      7839      7842
      7839      7842      7845      7846      7839      7842      7845      7847
      7839      7842      7845      7848      7840      7839      7842      7843
      7840      7839      7842      7844      7840      7839      7842      7845
      7841      7839      7842      7843      7841      7839      7842      7844
      7841      7839      7842      7845      7842      7845      7848      7849
      7842      7845      7848      7850      7842      7845      7848      7851
      7843      7842      7845      7846      7843      7842      7845      7847
      7843      7842      7845      7848      7844      7842      7845      7846
      7844      7842      7845      7847      7844      7842      7845      7848
      7845      7848      7851      7852      7845      7848      7851      7853
      7845      7848      7851      7854      7846      7845      7848      7849
      7846      7845      7848      7850      7846      7845      7848      7851
      7847      7845      7848      7849      7847      7845      7848      7850
      7847      7845      7848      7851      7848      7851      7854      7855
      7848      7851      7854      7856      7848      7851      7854      7857
      7849      7848      7851      7852      7849      7848      7851      7853
      7849      7848      7851      7854      7850      7848      7851      7852
      7850      7848      7851      7853      7850      7848      7851      7854
      7851      7854      7857      7858      7851      7854      7857      7859
      7851      7854      7857      7860      7852      7851      7854      7855
      7852      7851      7854      7856      7852      7851      7854      7857
      7853      7851      7854      7855      7853      7851      7854      7856
      7853      7851      7854      7857      7854      7857      7860      7861
      7854      7857      7860      7862      7854      7857      7860      7863
      7855      7854      7857      7858      7855      7854      7857      7859
      7855      7854      7857      7860      7856      7854      7857      7858
      7856      7854      7857      7859      7856      7854      7857      7860
      7858      7857      7860      7861      7858      7857      7860      7862
      7858      7857      7860      7863      7859      7857      7860      7861
      7859      7857      7860      7862      7859      7857      7860      7863
      7864      7867      7870      7871      7864      7867      7870      7872
      7864      7867      7870      7873      7865      7864      7867      7868
      7865      7864      7867      7869      7865      7864      7867      7870
      7866      7864      7867      7868      7866      7864      7867      7869
      7866      7864      7867      7870      7867      7870      7873      7874
      7867      7870      7873      7875      7867      7870      7873      7876
      7868      7867      7870      7871      7868      7867      7870      7872
      7868      7867      7870      7873      7869      7867      7870      7871
      7869      7867      7870      7872      7869      7867      7870      7873
      7870      7873      7876      7877      7870      7873      7876      7878
      7870      7873      7876      7879      7871      7870      7873      7874
      7871      7870      7873      7875      7871      7870      7873      7876
      7872      7870      7873      7874      7872      7870      7873      7875
      7872      7870      7873      7876      7873      7876      7879      7880
      7873      7876      7879      7881      7873      7876      7879      7882
      7874      7873      7876      7877      7874      7873      7876      7878
      7874      7873      7876      7879      7875      7873      7876      7877
      7875      7873      7876      7878      7875      7873      7876      7879
      7876      7879      7882      7883      7876      7879      7882      7884
      7876      7879      7882      7885      7877      7876      7879      7880
      7877      7876      7879      7881      7877      7876      7879      7882
      7878      7876      7879      7880      7878      7876      7879      7881
      7878      7876      7879      7882      7879      7882      7885      7886
      7879      7882      7885      7887      7879      7882      7885      7888
      7880      7879      7882      7883      7880      7879      7882      7884
      7880      7879      7882      7885      7881      7879      7882      7883
      7881      7879      7882      7884      7881      7879      7882      7885
      7882      7885      7888      7889      7882      7885      7888      7890
      7882      7885      7888      7891      7883      7882      7885      7886
      7883      7882      7885      7887      7883      7882      7885      7888
      7884      7882      7885      7886      7884      7882      7885      7887
      7884      7882      7885      7888      7885      7888      7891      7892
      7885      7888      7891      7893      7885      7888      7891      7894
      7886      7885      7888      7889      7886      7885      7888      7890
      7886      7885      7888      7891      7887      7885      7888      7889
      7887      7885      7888      7890      7887      7885      7888      7891
      7888      7891      7894      7895      7888      7891      7894      7896
      7888      7891      7894      7897      7889      7888      7891      7892
      7889      7888      7891      7893      7889      7888      7891      7894
      7890      7888      7891      7892      7890      7888      7891      7893
      7890      7888      7891      7894      7891      7894      7897      7898
      7891      7894      7897      7899      7891      7894      7897      7900
      7892      7891      7894      7895      7892      7891      7894      7896
      7892      7891      7894      7897      7893      7891      7894      7895
      7893      7891      7894      7896      7893      7891      7894      7897
      7894      7897      7900      7901      7894      7897      7900      7902
      7894      7897      7900      7903      7895      7894      7897      7898
      7895      7894      7897      7899      7895      7894      7897      7900
      7896      7894      7897      7898      7896      7894      7897      7899
      7896      7894      7897      7900      7897      7900      7903      7904
      7897      7900      7903      7905      7897      7900      7903      7906
      7898      7897      7900      7901      7898      7897      7900      7902
      7898      7897      7900      7903      7899      7897      7900      7901
      7899      7897      7900      7902      7899      7897      7900      7903
      7901      7900      7903      7904      7901      7900      7903      7905
      7901      7900      7903      7906      7902      7900      7903      7904
      7902      7900      7903      7905      7902      7900      7903      7906
      7907      7908      7923      7924      7907      7908      7923      7925
      7907      7908      7923      7929      7908      7907      7911      7912
      7908      7907      7911      7913      7908      7907      7911      7914
      7908      7907      7915      7916      7908      7907      7915      7917
      7908      7907      7915      7918      7908      7907      7919      7920
      7908      7907      7919      7921      7908      7907      7919      7922
      7908      7923      7929      7926      7909      7908      7907      7911
      7909      7908      7907      7915      7909      7908      7907      7919
      7909      7908      7923      7924      7909      7908      7923      7925
      7909      7908      7923      7929      7910      7908      7907      7911
      7910      7908      7907      7915      7910      7908      7907      7919
      7910      7908      7923      7924      7910      7908      7923      7925
      7910      7908      7923      7929      7911      7907      7908      7923
      7911      7907      7915      7916      7911      7907      7915      7917
      7911      7907      7915      7918      7911      7907      7919      7920
      7911      7907      7919      7921      7911      7907      7919      7922
      7912      7911      7907      7915      7912      7911      7907      7919
      7913      7911      7907      7915      7913      7911      7907      7919
      7914      7911      7907      7915      7914      7911      7907      7919
      7915      7907      7908      7923      7915      7907      7919      7920
      7915      7907      7919      7921      7915      7907      7919      7922
      7916      7915      7907      7919      7917      7915      7907      7919
      7918      7915      7907      7919      7919      7907      7908      7923
      7923      7929      7926      7927      7923      7929      7926      7928
      7923      7929      7926      7930      7924      7923      7929      7926
      7925      7923      7929      7926      7926      7930      7931      7932
      7926      7930      7931      7933      7926      7930      7931      7934
      7927      7926      7930      7931      7928      7926      7930      7931
      7929      7926      7930      7931      7930      7931      7934      7935
      7930      7931      7934      7936      7930      7931      7934      7942
      7931      7934      7936      7937      7931      7934      7942      7943
      7931      7934      7942      7944      7931      7934      7942      7945
      7932      7931      7934      7935      7932      7931      7934      7936
      7932      7931      7934      7942      7933      7931      7934      7935
      7933      7931      7934      7936      7933      7931      7934      7942
      7934      7936      7937      7938      7934      7936      7937      7939
      7934      7942      7945      7946      7935      7934      7936      7937
      7935      7934      7942      7943      7935      7934      7942      7944
      7935      7934      7942      7945      7936      7934      7942      7943
      7936      7934      7942      7944      7936      7934      7942      7945
      7936      7937      7939      7940      7936      7937      7939      7941
      7936      7937      7939      7951      7937      7936      7934      7942
      7937      7939      7951      7952      7937      7939      7951      7953
      7937      7939      7951      7954      7938      7937      7939      7940
      7938      7937      7939      7941      7938      7937      7939      7951
      7939      7951      7954      7955      7939      7951      7954      7956
      7939      7951      7954      7957      7940      7939      7951      7952
      7940      7939      7951      7953      7940      7939      7951      7954
      7941      7939      7951      7952      7941      7939      7951      7953
      7941      7939      7951      7954      7942      7945      7946      7947
      7942      7945      7946      7948      7943      7942      7945      7946
      7944      7942      7945      7946      7945      7946      7948      7949
      7945      7946      7948      7950      7945      7946      7948      7998
      7946      7948      7998      7999      7946      7948      7998      8000
      7946      7948      7998      8001      7947      7946      7948      7949
      7947      7946      7948      7950      7947      7946      7948      7998
      7948      7998      8001      8002      7948      7998      8001      8003
      7948      7998      8001      8004      7949      7948      7998      7999
      7949      7948      7998      8000      7949      7948      7998      8001
      7950      7948      7998      7999      7950      7948      7998      8000
      7950      7948      7998      8001      7951      7954      7957      7958
      7951      7954      7957      7959      7951      7954      7957      7960
      7952      7951      7954      7955      7952      7951      7954      7956
      7952      7951      7954      7957      7953      7951      7954      7955
      7953      7951      7954      7956      7953      7951      7954      7957
      7954      7957      7960      7961      7954      7957      7960      7962
      7954      7957      7960      7963      7955      7954      7957      7958
      7955      7954      7957      7959      7955      7954      7957      7960
      7956      7954      7957      7958      7956      7954      7957      7959
      7956      7954      7957      7960      7957      7960      7963      7964
      7957      7960      7963      7965      7957      7960      7963      7966
      7958      7957      7960      7961      7958      7957      7960      7962
      7958      7957      7960      7963      7959      7957      7960      7961
      7959      7957      7960      7962      7959      7957      7960      7963
      7960      7963      7966      7967      7960      7963      7966      7968
      7960      7963      7966      7969      7961      7960      7963      7964
      7961      7960      7963      7965      7961      7960      7963      7966
      7962      7960      7963      7964      7962      7960      7963      7965
      7962      7960      7963      7966      7963      7966      7969      7970
      7963      7966      7969      7971      7964      7963      7966      7967
      7964      7963      7966      7968      7964      7963      7966      7969
      7965      7963      7966      7967      7965      7963      7966      7968
      7965      7963      7966      7969      7966      7969      7971      7972
      7966      7969      7971      7973      7967      7966      7969      7970
      7967      7966      7969      7971      7968      7966      7969      7970
      7968      7966      7969      7971      7969      7971      7973      7974
      7969      7971      7973      7975      7969      7971      7973      7976
      7970      7969      7971      7972      7970      7969      7971      7973
      7971      7973      7976      7977      7971      7973      7976      7978
      7971      7973      7976      7979      7972      7971      7973      7974
      7972      7971      7973      7975      7972      7971      7973      7976
      7973      7976      7979      7980      7973      7976      7979      7981
      7973      7976      7979      7982      7974      7973      7976      7977
      7974      7973      7976      7978      7974      7973      7976      7979
      7975      7973      7976      7977      7975      7973      7976      7978
      7975      7973      7976      7979      7976      7979      7982      7983
      7976      7979      7982      7984      7976      7979      7982      7985
      7977      7976      7979      7980      7977      7976      7979      7981
      7977      7976      7979      7982      7978      7976      7979      7980
      7978      7976      7979      7981      7978      7976      7979      7982
      7979      7982      7985      7986      7979      7982      7985      7987
      7979      7982      7985      7988      7980      7979      7982      7983
      7980      7979      7982      7984      7980      7979      7982      7985
      7981      7979      7982      7983      7981      7979      7982      7984
      7981      7979      7982      7985      7982      7985      7988      7989
      7982      7985      7988      7990      7982      7985      7988      7991
      7983      7982      7985      7986      7983      7982      7985      7987
      7983      7982      7985      7988      7984      7982      7985      7986
      7984      7982      7985      7987      7984      7982      7985      7988
      7985      7988      7991      7992      7985      7988      7991      7993
      7985      7988      7991      7994      7986      7985      7988      7989
      7986      7985      7988      7990      7986      7985      7988      7991
      7987      7985      7988      7989      7987      7985      7988      7990
      7987      7985      7988      7991      7988      7991      7994      7995
      7988      7991      7994      7996      7988      7991      7994      7997
      7989      7988      7991      7992      7989      7988      7991      7993
      7989      7988      7991      7994      7990      7988      7991      7992
      7990      7988      7991      7993      7990      7988      7991      7994
      7992      7991      7994      7995      7992      7991      7994      7996
      7992      7991      7994      7997      7993      7991      7994      7995
      7993      7991      7994      7996      7993      7991      7994      7997
      7998      8001      8004      8005      7998      8001      8004      8006
      7998      8001      8004      8007      7999      7998      8001      8002
      7999      7998      8001      8003      7999      7998      8001      8004
      8000      7998      8001      8002      8000      7998      8001      8003
      8000      7998      8001      8004      8001      8004      8007      8008
      8001      8004      8007      8009      8001      8004      8007      8010
      8002      8001      8004      8005      8002      8001      8004      8006
      8002      8001      8004      8007      8003      8001      8004      8005
      8003      8001      8004      8006      8003      8001      8004      8007
      8004      8007      8010      8011      8004      8007      8010      8012
      8004      8007      8010      8013      8005      8004      8007      8008
      8005      8004      8007      8009      8005      8004      8007      8010
      8006      8004      8007      8008      8006      8004      8007      8009
      8006      8004      8007      8010      8007      8010      8013      8014
      8007      8010      8013      8015      8007      8010      8013      8016
      8008      8007      8010      8011      8008      8007      8010      8012
      8008      8007      8010      8013      8009      8007      8010      8011
      8009      8007      8010      8012      8009      8007      8010      8013
      8010      8013      8016      8017      8010      8013      8016      8018
      8010      8013      8016      8019      8011      8010      8013      8014
      8011      8010      8013      8015      8011      8010      8013      8016
      8012      8010      8013      8014      8012      8010      8013      8015
      8012      8010      8013      8016      8013      8016      8019      8020
      8013      8016      8019      8021      8013      8016      8019      8022
      8014      8013      8016      8017      8014      8013      8016      8018
      8014      8013      8016      8019      8015      8013      8016      8017
      8015      8013      8016      8018      8015      8013      8016      8019
      8016      8019      8022      8023      8016      8019      8022      8024
      8016      8019      8022      8025      8017      8016      8019      8020
      8017      8016      8019      8021      8017      8016      8019      8022
      8018      8016      8019      8020      8018      8016      8019      8021
      8018      8016      8019      8022      8019      8022      8025      8026
      8019      8022      8025      8027      8019      8022      8025      8028
      8020      8019      8022      8023      8020      8019      8022      8024
      8020      8019      8022      8025      8021      8019      8022      8023
      8021      8019      8022      8024      8021      8019      8022      8025
      8022      8025      8028      8029      8022      8025      8028      8030
      8022      8025      8028      8031      8023      8022      8025      8026
      8023      8022      8025      8027      8023      8022      8025      8028
      8024      8022      8025      8026      8024      8022      8025      8027
      8024      8022      8025      8028      8025      8028      8031      8032
      8025      8028      8031      8033      8025      8028      8031      8034
      8026      8025      8028      8029      8026      8025      8028      8030
      8026      8025      8028      8031      8027      8025      8028      8029
      8027      8025      8028      8030      8027      8025      8028      8031
      8028      8031      8034      8035      8028      8031      8034      8036
      8028      8031      8034      8037      8029      8028      8031      8032
      8029      8028      8031      8033      8029      8028      8031      8034
      8030      8028      8031      8032      8030      8028      8031      8033
      8030      8028      8031      8034      8031      8034      8037      8038
      8031      8034      8037      8039      8031      8034      8037      8040
      8032      8031      8034      8035      8032      8031      8034      8036
      8032      8031      8034      8037      8033      8031      8034      8035
      8033      8031      8034      8036      8033      8031      8034      8037
      8035      8034      8037      8038      8035      8034      8037      8039
      8035      8034      8037      8040      8036      8034      8037      8038
      8036      8034      8037      8039      8036      8034      8037      8040
      8041      8042      8057      8058      8041      8042      8057      8059
      8041      8042      8057      8063      8042      8041      8045      8046
      8042      8041      8045      8047      8042      8041      8045      8048
      8042      8041      8049      8050      8042      8041      8049      8051
      8042      8041      8049      8052      8042      8041      8053      8054
      8042      8041      8053      8055      8042      8041      8053      8056
      8042      8057      8063      8060      8043      8042      8041      8045
      8043      8042      8041      8049      8043      8042      8041      8053
      8043      8042      8057      8058      8043      8042      8057      8059
      8043      8042      8057      8063      8044      8042      8041      8045
      8044      8042      8041      8049      8044      8042      8041      8053
      8044      8042      8057      8058      8044      8042      8057      8059
      8044      8042      8057      8063      8045      8041      8042      8057
      8045      8041      8049      8050      8045      8041      8049      8051
      8045      8041      8049      8052      8045      8041      8053      8054
      8045      8041      8053      8055      8045      8041      8053      8056
      8046      8045      8041      8049      8046      8045      8041      8053
      8047      8045      8041      8049      8047      8045      8041      8053
      8048      8045      8041      8049      8048      8045      8041      8053
      8049      8041      8042      8057      8049      8041      8053      8054
      8049      8041      8053      8055      8049      8041      8053      8056
      8050      8049      8041      8053      8051      8049      8041      8053
      8052      8049      8041      8053      8053      8041      8042      8057
      8057      8063      8060      8061      8057      8063      8060      8062
      8057      8063      8060      8064      8058      8057      8063      8060
      8059      8057      8063      8060      8060      8064      8065      8066
      8060      8064      8065      8067      8060      8064      8065      8068
      8061      8060      8064      8065      8062      8060      8064      8065
      8063      8060      8064      8065      8064      8065      8068      8069
      8064      8065      8068      8070      8064      8065      8068      8076
      8065      8068      8070      8071      8065      8068      8076      8077
      8065      8068      8076      8078      8065      8068      8076      8079
      8066      8065      8068      8069      8066      8065      8068      8070
      8066      8065      8068      8076      8067      8065      8068      8069
      8067      8065      8068      8070      8067      8065      8068      8076
      8068      8070      8071      8072      8068      8070      8071      8073
      8068      8076      8079      8080      8069      8068      8070      8071
      8069      8068      8076      8077      8069      8068      8076      8078
      8069      8068      8076      8079      8070      8068      8076      8077
      8070      8068      8076      8078      8070      8068      8076      8079
      8070      8071      8073      8074      8070      8071      8073      8075
      8070      8071      8073      8085      8071      8070      8068      8076
      8071      8073      8085      8086      8071      8073      8085      8087
      8071      8073      8085      8088      8072      8071      8073      8074
      8072      8071      8073      8075      8072      8071      8073      8085
      8073      8085      8088      8089      8073      8085      8088      8090
      8073      8085      8088      8091      8074      8073      8085      8086
      8074      8073      8085      8087      8074      8073      8085      8088
      8075      8073      8085      8086      8075      8073      8085      8087
      8075      8073      8085      8088      8076      8079      8080      8081
      8076      8079      8080      8082      8077      8076      8079      8080
      8078      8076      8079      8080      8079      8080      8082      8083
      8079      8080      8082      8084      8079      8080      8082      8132
      8080      8082      8132      8133      8080      8082      8132      8134
      8080      8082      8132      8135      8081      8080      8082      8083
      8081      8080      8082      8084      8081      8080      8082      8132
      8082      8132      8135      8136      8082      8132      8135      8137
      8082      8132      8135      8138      8083      8082      8132      8133
      8083      8082      8132      8134      8083      8082      8132      8135
      8084      8082      8132      8133      8084      8082      8132      8134
      8084      8082      8132      8135      8085      8088      8091      8092
      8085      8088      8091      8093      8085      8088      8091      8094
      8086      8085      8088      8089      8086      8085      8088      8090
      8086      8085      8088      8091      8087      8085      8088      8089
      8087      8085      8088      8090      8087      8085      8088      8091
      8088      8091      8094      8095      8088      8091      8094      8096
      8088      8091      8094      8097      8089      8088      8091      8092
      8089      8088      8091      8093      8089      8088      8091      8094
      8090      8088      8091      8092      8090      8088      8091      8093
      8090      8088      8091      8094      8091      8094      8097      8098
      8091      8094      8097      8099      8091      8094      8097      8100
      8092      8091      8094      8095      8092      8091      8094      8096
      8092      8091      8094      8097      8093      8091      8094      8095
      8093      8091      8094      8096      8093      8091      8094      8097
      8094      8097      8100      8101      8094      8097      8100      8102
      8094      8097      8100      8103      8095      8094      8097      8098
      8095      8094      8097      8099      8095      8094      8097      8100
      8096      8094      8097      8098      8096      8094      8097      8099
      8096      8094      8097      8100      8097      8100      8103      8104
      8097      8100      8103      8105      8098      8097      8100      8101
      8098      8097      8100      8102      8098      8097      8100      8103
      8099      8097      8100      8101      8099      8097      8100      8102
      8099      8097      8100      8103      8100      8103      8105      8106
      8100      8103      8105      8107      8101      8100      8103      8104
      8101      8100      8103      8105      8102      8100      8103      8104
      8102      8100      8103      8105      8103      8105      8107      8108
      8103      8105      8107      8109      8103      8105      8107      8110
      8104      8103      8105      8106      8104      8103      8105      8107
      8105      8107      8110      8111      8105      8107      8110      8112
      8105      8107      8110      8113      8106      8105      8107      8108
      8106      8105      8107      8109      8106      8105      8107      8110
      8107      8110      8113      8114      8107      8110      8113      8115
      8107      8110      8113      8116      8108      8107      8110      8111
      8108      8107      8110      8112      8108      8107      8110      8113
      8109      8107      8110      8111      8109      8107      8110      8112
      8109      8107      8110      8113      8110      8113      8116      8117
      8110      8113      8116      8118      8110      8113      8116      8119
      8111      8110      8113      8114      8111      8110      8113      8115
      8111      8110      8113      8116      8112      8110      8113      8114
      8112      8110      8113      8115      8112      8110      8113      8116
      8113      8116      8119      8120      8113      8116      8119      8121
      8113      8116      8119      8122      8114      8113      8116      8117
      8114      8113      8116      8118      8114      8113      8116      8119
      8115      8113      8116      8117      8115      8113      8116      8118
      8115      8113      8116      8119      8116      8119      8122      8123
      8116      8119      8122      8124      8116      8119      8122      8125
      8117      8116      8119      8120      8117      8116      8119      8121
      8117      8116      8119      8122      8118      8116      8119      8120
      8118      8116      8119      8121      8118      8116      8119      8122
      8119      8122      8125      8126      8119      8122      8125      8127
      8119      8122      8125      8128      8120      8119      8122      8123
      8120      8119      8122      8124      8120      8119      8122      8125
      8121      8119      8122      8123      8121      8119      8122      8124
      8121      8119      8122      8125      8122      8125      8128      8129
      8122      8125      8128      8130      8122      8125      8128      8131
      8123      8122      8125      8126      8123      8122      8125      8127
      8123      8122      8125      8128      8124      8122      8125      8126
      8124      8122      8125      8127      8124      8122      8125      8128
      8126      8125      8128      8129      8126      8125      8128      8130
      8126      8125      8128      8131      8127      8125      8128      8129
      8127      8125      8128      8130      8127      8125      8128      8131
      8132      8135      8138      8139      8132      8135      8138      8140
      8132      8135      8138      8141      8133      8132      8135      8136
      8133      8132      8135      8137      8133      8132      8135      8138
      8134      8132      8135      8136      8134      8132      8135      8137
      8134      8132      8135      8138      8135      8138      8141      8142
      8135      8138      8141      8143      8135      8138      8141      8144
      8136      8135      8138      8139      8136      8135      8138      8140
      8136      8135      8138      8141      8137      8135      8138      8139
      8137      8135      8138      8140      8137      8135      8138      8141
      8138      8141      8144      8145      8138      8141      8144      8146
      8138      8141      8144      8147      8139      8138      8141      8142
      8139      8138      8141      8143      8139      8138      8141      8144
      8140      8138      8141      8142      8140      8138      8141      8143
      8140      8138      8141      8144      8141      8144      8147      8148
      8141      8144      8147      8149      8141      8144      8147      8150
      8142      8141      8144      8145      8142      8141      8144      8146
      8142      8141      8144      8147      8143      8141      8144      8145
      8143      8141      8144      8146      8143      8141      8144      8147
      8144      8147      8150      8151      8144      8147      8150      8152
      8144      8147      8150      8153      8145      8144      8147      8148
      8145      8144      8147      8149      8145      8144      8147      8150
      8146      8144      8147      8148      8146      8144      8147      8149
      8146      8144      8147      8150      8147      8150      8153      8154
      8147      8150      8153      8155      8147      8150      8153      8156
      8148      8147      8150      8151      8148      8147      8150      8152
      8148      8147      8150      8153      8149      8147      8150      8151
      8149      8147      8150      8152      8149      8147      8150      8153
      8150      8153      8156      8157      8150      8153      8156      8158
      8150      8153      8156      8159      8151      8150      8153      8154
      8151      8150      8153      8155      8151      8150      8153      8156
      8152      8150      8153      8154      8152      8150      8153      8155
      8152      8150      8153      8156      8153      8156      8159      8160
      8153      8156      8159      8161      8153      8156      8159      8162
      8154      8153      8156      8157      8154      8153      8156      8158
      8154      8153      8156      8159      8155      8153      8156      8157
      8155      8153      8156      8158      8155      8153      8156      8159
      8156      8159      8162      8163      8156      8159      8162      8164
      8156      8159      8162      8165      8157      8156      8159      8160
      8157      8156      8159      8161      8157      8156      8159      8162
      8158      8156      8159      8160      8158      8156      8159      8161
      8158      8156      8159      8162      8159      8162      8165      8166
      8159      8162      8165      8167      8159      8162      8165      8168
      8160      8159      8162      8163      8160      8159      8162      8164
      8160      8159      8162      8165      8161      8159      8162      8163
      8161      8159      8162      8164      8161      8159      8162      8165
      8162      8165      8168      8169      8162      8165      8168      8170
      8162      8165      8168      8171      8163      8162      8165      8166
      8163      8162      8165      8167      8163      8162      8165      8168
      8164      8162      8165      8166      8164      8162      8165      8167
      8164      8162      8165      8168      8165      8168      8171      8172
      8165      8168      8171      8173      8165      8168      8171      8174
      8166      8165      8168      8169      8166      8165      8168      8170
      8166      8165      8168      8171      8167      8165      8168      8169
      8167      8165      8168      8170      8167      8165      8168      8171
      8169      8168      8171      8172      8169      8168      8171      8173
      8169      8168      8171      8174      8170      8168      8171      8172
      8170      8168      8171      8173      8170      8168      8171      8174
      8175      8176      8191      8192      8175      8176      8191      8193
      8175      8176      8191      8197      8176      8175      8179      8180
      8176      8175      8179      8181      8176      8175      8179      8182
      8176      8175      8183      8184      8176      8175      8183      8185
      8176      8175      8183      8186      8176      8175      8187      8188
      8176      8175      8187      8189      8176      8175      8187      8190
      8176      8191      8197      8194      8177      8176      8175      8179
      8177      8176      8175      8183      8177      8176      8175      8187
      8177      8176      8191      8192      8177      8176      8191      8193
      8177      8176      8191      8197      8178      8176      8175      8179
      8178      8176      8175      8183      8178      8176      8175      8187
      8178      8176      8191      8192      8178      8176      8191      8193
      8178      8176      8191      8197      8179      8175      8176      8191
      8179      8175      8183      8184      8179      8175      8183      8185
      8179      8175      8183      8186      8179      8175      8187      8188
      8179      8175      8187      8189      8179      8175      8187      8190
      8180      8179      8175      8183      8180      8179      8175      8187
      8181      8179      8175      8183      8181      8179      8175      8187
      8182      8179      8175      8183      8182      8179      8175      8187
      8183      8175      8176      8191      8183      8175      8187      8188
      8183      8175      8187      8189      8183      8175      8187      8190
      8184      8183      8175      8187      8185      8183      8175      8187
      8186      8183      8175      8187      8187      8175      8176      8191
      8191      8197      8194      8195      8191      8197      8194      8196
      8191      8197      8194      8198      8192      8191      8197      8194
      8193      8191      8197      8194      8194      8198      8199      8200
      8194      8198      8199      8201      8194      8198      8199      8202
      8195      8194      8198      8199      8196      8194      8198      8199
      8197      8194      8198      8199      8198      8199      8202      8203
      8198      8199      8202      8204      8198      8199      8202      8210
      8199      8202      8204      8205      8199      8202      8210      8211
      8199      8202      8210      8212      8199      8202      8210      8213
      8200      8199      8202      8203      8200      8199      8202      8204
      8200      8199      8202      8210      8201      8199      8202      8203
      8201      8199      8202      8204      8201      8199      8202      8210
      8202      8204      8205      8206      8202      8204      8205      8207
      8202      8210      8213      8214      8203      8202      8204      8205
      8203      8202      8210      8211      8203      8202      8210      8212
      8203      8202      8210      8213      8204      8202      8210      8211
      8204      8202      8210      8212      8204      8202      8210      8213
      8204      8205      8207      8208      8204      8205      8207      8209
      8204      8205      8207      8219      8205      8204      8202      8210
      8205      8207      8219      8220      8205      8207      8219      8221
      8205      8207      8219      8222      8206      8205      8207      8208
      8206      8205      8207      8209      8206      8205      8207      8219
      8207      8219      8222      8223      8207      8219      8222      8224
      8207      8219      8222      8225      8208      8207      8219      8220
      8208      8207      8219      8221      8208      8207      8219      8222
      8209      8207      8219      8220      8209      8207      8219      8221
      8209      8207      8219      8222      8210      8213      8214      8215
      8210      8213      8214      8216      8211      8210      8213      8214
      8212      8210      8213      8214      8213      8214      8216      8217
      8213      8214      8216      8218      8213      8214      8216      8266
      8214      8216      8266      8267      8214      8216      8266      8268
      8214      8216      8266      8269      8215      8214      8216      8217
      8215      8214      8216      8218      8215      8214      8216      8266
      8216      8266      8269      8270      8216      8266      8269      8271
      8216      8266      8269      8272      8217      8216      8266      8267
      8217      8216      8266      8268      8217      8216      8266      8269
      8218      8216      8266      8267      8218      8216      8266      8268
      8218      8216      8266      8269      8219      8222      8225      8226
      8219      8222      8225      8227      8219      8222      8225      8228
      8220      8219      8222      8223      8220      8219      8222      8224
      8220      8219      8222      8225      8221      8219      8222      8223
      8221      8219      8222      8224      8221      8219      8222      8225
      8222      8225      8228      8229      8222      8225      8228      8230
      8222      8225      8228      8231      8223      8222      8225      8226
      8223      8222      8225      8227      8223      8222      8225      8228
      8224      8222      8225      8226      8224      8222      8225      8227
      8224      8222      8225      8228      8225      8228      8231      8232
      8225      8228      8231      8233      8225      8228      8231      8234
      8226      8225      8228      8229      8226      8225      8228      8230
      8226      8225      8228      8231      8227      8225      8228      8229
      8227      8225      8228      8230      8227      8225      8228      8231
      8228      8231      8234      8235      8228      8231      8234      8236
      8228      8231      8234      8237      8229      8228      8231      8232
      8229      8228      8231      8233      8229      8228      8231      8234
      8230      8228      8231      8232      8230      8228      8231      8233
      8230      8228      8231      8234      8231      8234      8237      8238
      8231      8234      8237      8239      8232      8231      8234      8235
      8232      8231      8234      8236      8232      8231      8234      8237
      8233      8231      8234      8235      8233      8231      8234      8236
      8233      8231      8234      8237      8234      8237      8239      8240
      8234      8237      8239      8241      8235      8234      8237      8238
      8235      8234      8237      8239      8236      8234      8237      8238
      8236      8234      8237      8239      8237      8239      8241      8242
      8237      8239      8241      8243      8237      8239      8241      8244
      8238      8237      8239      8240      8238      8237      8239      8241
      8239      8241      8244      8245      8239      8241      8244      8246
      8239      8241      8244      8247      8240      8239      8241      8242
      8240      8239      8241      8243      8240      8239      8241      8244
      8241      8244      8247      8248      8241      8244      8247      8249
      8241      8244      8247      8250      8242      8241      8244      8245
      8242      8241      8244      8246      8242      8241      8244      8247
      8243      8241      8244      8245      8243      8241      8244      8246
      8243      8241      8244      8247      8244      8247      8250      8251
      8244      8247      8250      8252      8244      8247      8250      8253
      8245      8244      8247      8248      8245      8244      8247      8249
      8245      8244      8247      8250      8246      8244      8247      8248
      8246      8244      8247      8249      8246      8244      8247      8250
      8247      8250      8253      8254      8247      8250      8253      8255
      8247      8250      8253      8256      8248      8247      8250      8251
      8248      8247      8250      8252      8248      8247      8250      8253
      8249      8247      8250      8251      8249      8247      8250      8252
      8249      8247      8250      8253      8250      8253      8256      8257
      8250      8253      8256      8258      8250      8253      8256      8259
      8251      8250      8253      8254      8251      8250      8253      8255
      8251      8250      8253      8256      8252      8250      8253      8254
      8252      8250      8253      8255      8252      8250      8253      8256
      8253      8256      8259      8260      8253      8256      8259      8261
      8253      8256      8259      8262      8254      8253      8256      8257
      8254      8253      8256      8258      8254      8253      8256      8259
      8255      8253      8256      8257      8255      8253      8256      8258
      8255      8253      8256      8259      8256      8259      8262      8263
      8256      8259      8262      8264      8256      8259      8262      8265
      8257      8256      8259      8260      8257      8256      8259      8261
      8257      8256      8259      8262      8258      8256      8259      8260
      8258      8256      8259      8261      8258      8256      8259      8262
      8260      8259      8262      8263      8260      8259      8262      8264
      8260      8259      8262      8265      8261      8259      8262      8263
      8261      8259      8262      8264      8261      8259      8262      8265
      8266      8269      8272      8273      8266      8269      8272      8274
      8266      8269      8272      8275      8267      8266      8269      8270
      8267      8266      8269      8271      8267      8266      8269      8272
      8268      8266      8269      8270      8268      8266      8269      8271
      8268      8266      8269      8272      8269      8272      8275      8276
      8269      8272      8275      8277      8269      8272      8275      8278
      8270      8269      8272      8273      8270      8269      8272      8274
      8270      8269      8272      8275      8271      8269      8272      8273
      8271      8269      8272      8274      8271      8269      8272      8275
      8272      8275      8278      8279      8272      8275      8278      8280
      8272      8275      8278      8281      8273      8272      8275      8276
      8273      8272      8275      8277      8273      8272      8275      8278
      8274      8272      8275      8276      8274      8272      8275      8277
      8274      8272      8275      8278      8275      8278      8281      8282
      8275      8278      8281      8283      8275      8278      8281      8284
      8276      8275      8278      8279      8276      8275      8278      8280
      8276      8275      8278      8281      8277      8275      8278      8279
      8277      8275      8278      8280      8277      8275      8278      8281
      8278      8281      8284      8285      8278      8281      8284      8286
      8278      8281      8284      8287      8279      8278      8281      8282
      8279      8278      8281      8283      8279      8278      8281      8284
      8280      8278      8281      8282      8280      8278      8281      8283
      8280      8278      8281      8284      8281      8284      8287      8288
      8281      8284      8287      8289      8281      8284      8287      8290
      8282      8281      8284      8285      8282      8281      8284      8286
      8282      8281      8284      8287      8283      8281      8284      8285
      8283      8281      8284      8286      8283      8281      8284      8287
      8284      8287      8290      8291      8284      8287      8290      8292
      8284      8287      8290      8293      8285      8284      8287      8288
      8285      8284      8287      8289      8285      8284      8287      8290
      8286      8284      8287      8288      8286      8284      8287      8289
      8286      8284      8287      8290      8287      8290      8293      8294
      8287      8290      8293      8295      8287      8290      8293      8296
      8288      8287      8290      8291      8288      8287      8290      8292
      8288      8287      8290      8293      8289      8287      8290      8291
      8289      8287      8290      8292      8289      8287      8290      8293
      8290      8293      8296      8297      8290      8293      8296      8298
      8290      8293      8296      8299      8291      8290      8293      8294
      8291      8290      8293      8295      8291      8290      8293      8296
      8292      8290      8293      8294      8292      8290      8293      8295
      8292      8290      8293      8296      8293      8296      8299      8300
      8293      8296      8299      8301      8293      8296      8299      8302
      8294      8293      8296      8297      8294      8293      8296      8298
      8294      8293      8296      8299      8295      8293      8296      8297
      8295      8293      8296      8298      8295      8293      8296      8299
      8296      8299      8302      8303      8296      8299      8302      8304
      8296      8299      8302      8305      8297      8296      8299      8300
      8297      8296      8299      8301      8297      8296      8299      8302
      8298      8296      8299      8300      8298      8296      8299      8301
      8298      8296      8299      8302      8299      8302      8305      8306
      8299      8302      8305      8307      8299      8302      8305      8308
      8300      8299      8302      8303      8300      8299      8302      8304
      8300      8299      8302      8305      8301      8299      8302      8303
      8301      8299      8302      8304      8301      8299      8302      8305
      8303      8302      8305      8306      8303      8302      8305      8307
      8303      8302      8305      8308      8304      8302      8305      8306
      8304      8302      8305      8307      8304      8302      8305      8308
      8309      8310      8325      8326      8309      8310      8325      8327
      8309      8310      8325      8331      8310      8309      8313      8314
      8310      8309      8313      8315      8310      8309      8313      8316
      8310      8309      8317      8318      8310      8309      8317      8319
      8310      8309      8317      8320      8310      8309      8321      8322
      8310      8309      8321      8323      8310      8309      8321      8324
      8310      8325      8331      8328      8311      8310      8309      8313
      8311      8310      8309      8317      8311      8310      8309      8321
      8311      8310      8325      8326      8311      8310      8325      8327
      8311      8310      8325      8331      8312      8310      8309      8313
      8312      8310      8309      8317      8312      8310      8309      8321
      8312      8310      8325      8326      8312      8310      8325      8327
      8312      8310      8325      8331      8313      8309      8310      8325
      8313      8309      8317      8318      8313      8309      8317      8319
      8313      8309      8317      8320      8313      8309      8321      8322
      8313      8309      8321      8323      8313      8309      8321      8324
      8314      8313      8309      8317      8314      8313      8309      8321
      8315      8313      8309      8317      8315      8313      8309      8321
      8316      8313      8309      8317      8316      8313      8309      8321
      8317      8309      8310      8325      8317      8309      8321      8322
      8317      8309      8321      8323      8317      8309      8321      8324
      8318      8317      8309      8321      8319      8317      8309      8321
      8320      8317      8309      8321      8321      8309      8310      8325
      8325      8331      8328      8329      8325      8331      8328      8330
      8325      8331      8328      8332      8326      8325      8331      8328
      8327      8325      8331      8328      8328      8332      8333      8334
      8328      8332      8333      8335      8328      8332      8333      8336
      8329      8328      8332      8333      8330      8328      8332      8333
      8331      8328      8332      8333      8332      8333      8336      8337
      8332      8333      8336      8338      8332      8333      8336      8344
      8333      8336      8338      8339      8333      8336      8344      8345
      8333      8336      8344      8346      8333      8336      8344      8347
      8334      8333      8336      8337      8334      8333      8336      8338
      8334      8333      8336      8344      8335      8333      8336      8337
      8335      8333      8336      8338      8335      8333      8336      8344
      8336      8338      8339      8340      8336      8338      8339      8341
      8336      8344      8347      8348      8337      8336      8338      8339
      8337      8336      8344      8345      8337      8336      8344      8346
      8337      8336      8344      8347      8338      8336      8344      8345
      8338      8336      8344      8346      8338      8336      8344      8347
      8338      8339      8341      8342      8338      8339      8341      8343
      8338      8339      8341      8353      8339      8338      8336      8344
      8339      8341      8353      8354      8339      8341      8353      8355
      8339      8341      8353      8356      8340      8339      8341      8342
      8340      8339      8341      8343      8340      8339      8341      8353
      8341      8353      8356      8357      8341      8353      8356      8358
      8341      8353      8356      8359      8342      8341      8353      8354
      8342      8341      8353      8355      8342      8341      8353      8356
      8343      8341      8353      8354      8343      8341      8353      8355
      8343      8341      8353      8356      8344      8347      8348      8349
      8344      8347      8348      8350      8345      8344      8347      8348
      8346      8344      8347      8348      8347      8348      8350      8351
      8347      8348      8350      8352      8347      8348      8350      8400
      8348      8350      8400      8401      8348      8350      8400      8402
      8348      8350      8400      8403      8349      8348      8350      8351
      8349      8348      8350      8352      8349      8348      8350      8400
      8350      8400      8403      8404      8350      8400      8403      8405
      8350      8400      8403      8406      8351      8350      8400      8401
      8351      8350      8400      8402      8351      8350      8400      8403
      8352      8350      8400      8401      8352      8350      8400      8402
      8352      8350      8400      8403      8353      8356      8359      8360
      8353      8356      8359      8361      8353      8356      8359      8362
      8354      8353      8356      8357      8354      8353      8356      8358
      8354      8353      8356      8359      8355      8353      8356      8357
      8355      8353      8356      8358      8355      8353      8356      8359
      8356      8359      8362      8363      8356      8359      8362      8364
      8356      8359      8362      8365      8357      8356      8359      8360
      8357      8356      8359      8361      8357      8356      8359      8362
      8358      8356      8359      8360      8358      8356      8359      8361
      8358      8356      8359      8362      8359      8362      8365      8366
      8359      8362      8365      8367      8359      8362      8365      8368
      8360      8359      8362      8363      8360      8359      8362      8364
      8360      8359      8362      8365      8361      8359      8362      8363
      8361      8359      8362      8364      8361      8359      8362      8365
      8362      8365      8368      8369      8362      8365      8368      8370
      8362      8365      8368      8371      8363      8362      8365      8366
      8363      8362      8365      8367      8363      8362      8365      8368
      8364      8362      8365      8366      8364      8362      8365      8367
      8364      8362      8365      8368      8365      8368      8371      8372
      8365      8368      8371      8373      8366      8365      8368      8369
      8366      8365      8368      8370      8366      8365      8368      8371
      8367      8365      8368      8369      8367      8365      8368      8370
      8367      8365      8368      8371      8368      8371      8373      8374
      8368      8371      8373      8375      8369      8368      8371      8372
      8369      8368      8371      8373      8370      8368      8371      8372
      8370      8368      8371      8373      8371      8373      8375      8376
      8371      8373      8375      8377      8371      8373      8375      8378
      8372      8371      8373      8374      8372      8371      8373      8375
      8373      8375      8378      8379      8373      8375      8378      8380
      8373      8375      8378      8381      8374      8373      8375      8376
      8374      8373      8375      8377      8374      8373      8375      8378
      8375      8378      8381      8382      8375      8378      8381      8383
      8375      8378      8381      8384      8376      8375      8378      8379
      8376      8375      8378      8380      8376      8375      8378      8381
      8377      8375      8378      8379      8377      8375      8378      8380
      8377      8375      8378      8381      8378      8381      8384      8385
      8378      8381      8384      8386      8378      8381      8384      8387
      8379      8378      8381      8382      8379      8378      8381      8383
      8379      8378      8381      8384      8380      8378      8381      8382
      8380      8378      8381      8383      8380      8378      8381      8384
      8381      8384      8387      8388      8381      8384      8387      8389
      8381      8384      8387      8390      8382      8381      8384      8385
      8382      8381      8384      8386      8382      8381      8384      8387
      8383      8381      8384      8385      8383      8381      8384      8386
      8383      8381      8384      8387      8384      8387      8390      8391
      8384      8387      8390      8392      8384      8387      8390      8393
      8385      8384      8387      8388      8385      8384      8387      8389
      8385      8384      8387      8390      8386      8384      8387      8388
      8386      8384      8387      8389      8386      8384      8387      8390
      8387      8390      8393      8394      8387      8390      8393      8395
      8387      8390      8393      8396      8388      8387      8390      8391
      8388      8387      8390      8392      8388      8387      8390      8393
      8389      8387      8390      8391      8389      8387      8390      8392
      8389      8387      8390      8393      8390      8393      8396      8397
      8390      8393      8396      8398      8390      8393      8396      8399
      8391      8390      8393      8394      8391      8390      8393      8395
      8391      8390      8393      8396      8392      8390      8393      8394
      8392      8390      8393      8395      8392      8390      8393      8396
      8394      8393      8396      8397      8394      8393      8396      8398
      8394      8393      8396      8399      8395      8393      8396      8397
      8395      8393      8396      8398      8395      8393      8396      8399
      8400      8403      8406      8407      8400      8403      8406      8408
      8400      8403      8406      8409      8401      8400      8403      8404
      8401      8400      8403      8405      8401      8400      8403      8406
      8402      8400      8403      8404      8402      8400      8403      8405
      8402      8400      8403      8406      8403      8406      8409      8410
      8403      8406      8409      8411      8403      8406      8409      8412
      8404      8403      8406      8407      8404      8403      8406      8408
      8404      8403      8406      8409      8405      8403      8406      8407
      8405      8403      8406      8408      8405      8403      8406      8409
      8406      8409      8412      8413      8406      8409      8412      8414
      8406      8409      8412      8415      8407      8406      8409      8410
      8407      8406      8409      8411      8407      8406      8409      8412
      8408      8406      8409      8410      8408      8406      8409      8411
      8408      8406      8409      8412      8409      8412      8415      8416
      8409      8412      8415      8417      8409      8412      8415      8418
      8410      8409      8412      8413      8410      8409      8412      8414
      8410      8409      8412      8415      8411      8409      8412      8413
      8411      8409      8412      8414      8411      8409      8412      8415
      8412      8415      8418      8419      8412      8415      8418      8420
      8412      8415      8418      8421      8413      8412      8415      8416
      8413      8412      8415      8417      8413      8412      8415      8418
      8414      8412      8415      8416      8414      8412      8415      8417
      8414      8412      8415      8418      8415      8418      8421      8422
      8415      8418      8421      8423      8415      8418      8421      8424
      8416      8415      8418      8419      8416      8415      8418      8420
      8416      8415      8418      8421      8417      8415      8418      8419
      8417      8415      8418      8420      8417      8415      8418      8421
      8418      8421      8424      8425      8418      8421      8424      8426
      8418      8421      8424      8427      8419      8418      8421      8422
      8419      8418      8421      8423      8419      8418      8421      8424
      8420      8418      8421      8422      8420      8418      8421      8423
      8420      8418      8421      8424      8421      8424      8427      8428
      8421      8424      8427      8429      8421      8424      8427      8430
      8422      8421      8424      8425      8422      8421      8424      8426
      8422      8421      8424      8427      8423      8421      8424      8425
      8423      8421      8424      8426      8423      8421      8424      8427
      8424      8427      8430      8431      8424      8427      8430      8432
      8424      8427      8430      8433      8425      8424      8427      8428
      8425      8424      8427      8429      8425      8424      8427      8430
      8426      8424      8427      8428      8426      8424      8427      8429
      8426      8424      8427      8430      8427      8430      8433      8434
      8427      8430      8433      8435      8427      8430      8433      8436
      8428      8427      8430      8431      8428      8427      8430      8432
      8428      8427      8430      8433      8429      8427      8430      8431
      8429      8427      8430      8432      8429      8427      8430      8433
      8430      8433      8436      8437      8430      8433      8436      8438
      8430      8433      8436      8439      8431      8430      8433      8434
      8431      8430      8433      8435      8431      8430      8433      8436
      8432      8430      8433      8434      8432      8430      8433      8435
      8432      8430      8433      8436      8433      8436      8439      8440
      8433      8436      8439      8441      8433      8436      8439      8442
      8434      8433      8436      8437      8434      8433      8436      8438
      8434      8433      8436      8439      8435      8433      8436      8437
      8435      8433      8436      8438      8435      8433      8436      8439
      8437      8436      8439      8440      8437      8436      8439      8441
      8437      8436      8439      8442      8438      8436      8439      8440
      8438      8436      8439      8441      8438      8436      8439      8442
      8443      8444      8459      8460      8443      8444      8459      8461
      8443      8444      8459      8465      8444      8443      8447      8448
      8444      8443      8447      8449      8444      8443      8447      8450
      8444      8443      8451      8452      8444      8443      8451      8453
      8444      8443      8451      8454      8444      8443      8455      8456
      8444      8443      8455      8457      8444      8443      8455      8458
      8444      8459      8465      8462      8445      8444      8443      8447
      8445      8444      8443      8451      8445      8444      8443      8455
      8445      8444      8459      8460      8445      8444      8459      8461
      8445      8444      8459      8465      8446      8444      8443      8447
      8446      8444      8443      8451      8446      8444      8443      8455
      8446      8444      8459      8460      8446      8444      8459      8461
      8446      8444      8459      8465      8447      8443      8444      8459
      8447      8443      8451      8452      8447      8443      8451      8453
      8447      8443      8451      8454      8447      8443      8455      8456
      8447      8443      8455      8457      8447      8443      8455      8458
      8448      8447      8443      8451      8448      8447      8443      8455
      8449      8447      8443      8451      8449      8447      8443      8455
      8450      8447      8443      8451      8450      8447      8443      8455
      8451      8443      8444      8459      8451      8443      8455      8456
      8451      8443      8455      8457      8451      8443      8455      8458
      8452      8451      8443      8455      8453      8451      8443      8455
      8454      8451      8443      8455      8455      8443      8444      8459
      8459      8465      8462      8463      8459      8465      8462      8464
      8459      8465      8462      8466      8460      8459      8465      8462
      8461      8459      8465      8462      8462      8466      8467      8468
      8462      8466      8467      8469      8462      8466      8467      8470
      8463      8462      8466      8467      8464      8462      8466      8467
      8465      8462      8466      8467      8466      8467      8470      8471
      8466      8467      8470      8472      8466      8467      8470      8478
      8467      8470      8472      8473      8467      8470      8478      8479
      8467      8470      8478      8480      8467      8470      8478      8481
      8468      8467      8470      8471      8468      8467      8470      8472
      8468      8467      8470      8478      8469      8467      8470      8471
      8469      8467      8470      8472      8469      8467      8470      8478
      8470      8472      8473      8474      8470      8472      8473      8475
      8470      8478      8481      8482      8471      8470      8472      8473
      8471      8470      8478      8479      8471      8470      8478      8480
      8471      8470      8478      8481      8472      8470      8478      8479
      8472      8470      8478      8480      8472      8470      8478      8481
      8472      8473      8475      8476      8472      8473      8475      8477
      8472      8473      8475      8487      8473      8472      8470      8478
      8473      8475      8487      8488      8473      8475      8487      8489
      8473      8475      8487      8490      8474      8473      8475      8476
      8474      8473      8475      8477      8474      8473      8475      8487
      8475      8487      8490      8491      8475      8487      8490      8492
      8475      8487      8490      8493      8476      8475      8487      8488
      8476      8475      8487      8489      8476      8475      8487      8490
      8477      8475      8487      8488      8477      8475      8487      8489
      8477      8475      8487      8490      8478      8481      8482      8483
      8478      8481      8482      8484      8479      8478      8481      8482
      8480      8478      8481      8482      8481      8482      8484      8485
      8481      8482      8484      8486      8481      8482      8484      8534
      8482      8484      8534      8535      8482      8484      8534      8536
      8482      8484      8534      8537      8483      8482      8484      8485
      8483      8482      8484      8486      8483      8482      8484      8534
      8484      8534      8537      8538      8484      8534      8537      8539
      8484      8534      8537      8540      8485      8484      8534      8535
      8485      8484      8534      8536      8485      8484      8534      8537
      8486      8484      8534      8535      8486      8484      8534      8536
      8486      8484      8534      8537      8487      8490      8493      8494
      8487      8490      8493      8495      8487      8490      8493      8496
      8488      8487      8490      8491      8488      8487      8490      8492
      8488      8487      8490      8493      8489      8487      8490      8491
      8489      8487      8490      8492      8489      8487      8490      8493
      8490      8493      8496      8497      8490      8493      8496      8498
      8490      8493      8496      8499      8491      8490      8493      8494
      8491      8490      8493      8495      8491      8490      8493      8496
      8492      8490      8493      8494      8492      8490      8493      8495
      8492      8490      8493      8496      8493      8496      8499      8500
      8493      8496      8499      8501      8493      8496      8499      8502
      8494      8493      8496      8497      8494      8493      8496      8498
      8494      8493      8496      8499      8495      8493      8496      8497
      8495      8493      8496      8498      8495      8493      8496      8499
      8496      8499      8502      8503      8496      8499      8502      8504
      8496      8499      8502      8505      8497      8496      8499      8500
      8497      8496      8499      8501      8497      8496      8499      8502
      8498      8496      8499      8500      8498      8496      8499      8501
      8498      8496      8499      8502      8499      8502      8505      8506
      8499      8502      8505      8507      8500      8499      8502      8503
      8500      8499      8502      8504      8500      8499      8502      8505
      8501      8499      8502      8503      8501      8499      8502      8504
      8501      8499      8502      8505      8502      8505      8507      8508
      8502      8505      8507      8509      8503      8502      8505      8506
      8503      8502      8505      8507      8504      8502      8505      8506
      8504      8502      8505      8507      8505      8507      8509      8510
      8505      8507      8509      8511      8505      8507      8509      8512
      8506      8505      8507      8508      8506      8505      8507      8509
      8507      8509      8512      8513      8507      8509      8512      8514
      8507      8509      8512      8515      8508      8507      8509      8510
      8508      8507      8509      8511      8508      8507      8509      8512
      8509      8512      8515      8516      8509      8512      8515      8517
      8509      8512      8515      8518      8510      8509      8512      8513
      8510      8509      8512      8514      8510      8509      8512      8515
      8511      8509      8512      8513      8511      8509      8512      8514
      8511      8509      8512      8515      8512      8515      8518      8519
      8512      8515      8518      8520      8512      8515      8518      8521
      8513      8512      8515      8516      8513      8512      8515      8517
      8513      8512      8515      8518      8514      8512      8515      8516
      8514      8512      8515      8517      8514      8512      8515      8518
      8515      8518      8521      8522      8515      8518      8521      8523
      8515      8518      8521      8524      8516      8515      8518      8519
      8516      8515      8518      8520      8516      8515      8518      8521
      8517      8515      8518      8519      8517      8515      8518      8520
      8517      8515      8518      8521      8518      8521      8524      8525
      8518      8521      8524      8526      8518      8521      8524      8527
      8519      8518      8521      8522      8519      8518      8521      8523
      8519      8518      8521      8524      8520      8518      8521      8522
      8520      8518      8521      8523      8520      8518      8521      8524
      8521      8524      8527      8528      8521      8524      8527      8529
      8521      8524      8527      8530      8522      8521      8524      8525
      8522      8521      8524      8526      8522      8521      8524      8527
      8523      8521      8524      8525      8523      8521      8524      8526
      8523      8521      8524      8527      8524      8527      8530      8531
      8524      8527      8530      8532      8524      8527      8530      8533
      8525      8524      8527      8528      8525      8524      8527      8529
      8525      8524      8527      8530      8526      8524      8527      8528
      8526      8524      8527      8529      8526      8524      8527      8530
      8528      8527      8530      8531      8528      8527      8530      8532
      8528      8527      8530      8533      8529      8527      8530      8531
      8529      8527      8530      8532      8529      8527      8530      8533
      8534      8537      8540      8541      8534      8537      8540      8542
      8534      8537      8540      8543      8535      8534      8537      8538
      8535      8534      8537      8539      8535      8534      8537      8540
      8536      8534      8537      8538      8536      8534      8537      8539
      8536      8534      8537      8540      8537      8540      8543      8544
      8537      8540      8543      8545      8537      8540      8543      8546
      8538      8537      8540      8541      8538      8537      8540      8542
      8538      8537      8540      8543      8539      8537      8540      8541
      8539      8537      8540      8542      8539      8537      8540      8543
      8540      8543      8546      8547      8540      8543      8546      8548
      8540      8543      8546      8549      8541      8540      8543      8544
      8541      8540      8543      8545      8541      8540      8543      8546
      8542      8540      8543      8544      8542      8540      8543      8545
      8542      8540      8543      8546      8543      8546      8549      8550
      8543      8546      8549      8551      8543      8546      8549      8552
      8544      8543      8546      8547      8544      8543      8546      8548
      8544      8543      8546      8549      8545      8543      8546      8547
      8545      8543      8546      8548      8545      8543      8546      8549
      8546      8549      8552      8553      8546      8549      8552      8554
      8546      8549      8552      8555      8547      8546      8549      8550
      8547      8546      8549      8551      8547      8546      8549      8552
      8548      8546      8549      8550      8548      8546      8549      8551
      8548      8546      8549      8552      8549      8552      8555      8556
      8549      8552      8555      8557      8549      8552      8555      8558
      8550      8549      8552      8553      8550      8549      8552      8554
      8550      8549      8552      8555      8551      8549      8552      8553
      8551      8549      8552      8554      8551      8549      8552      8555
      8552      8555      8558      8559      8552      8555      8558      8560
      8552      8555      8558      8561      8553      8552      8555      8556
      8553      8552      8555      8557      8553      8552      8555      8558
      8554      8552      8555      8556      8554      8552      8555      8557
      8554      8552      8555      8558      8555      8558      8561      8562
      8555      8558      8561      8563      8555      8558      8561      8564
      8556      8555      8558      8559      8556      8555      8558      8560
      8556      8555      8558      8561      8557      8555      8558      8559
      8557      8555      8558      8560      8557      8555      8558      8561
      8558      8561      8564      8565      8558      8561      8564      8566
      8558      8561      8564      8567      8559      8558      8561      8562
      8559      8558      8561      8563      8559      8558      8561      8564
      8560      8558      8561      8562      8560      8558      8561      8563
      8560      8558      8561      8564      8561      8564      8567      8568
      8561      8564      8567      8569      8561      8564      8567      8570
      8562      8561      8564      8565      8562      8561      8564      8566
      8562      8561      8564      8567      8563      8561      8564      8565
      8563      8561      8564      8566      8563      8561      8564      8567
      8564      8567      8570      8571      8564      8567      8570      8572
      8564      8567      8570      8573      8565      8564      8567      8568
      8565      8564      8567      8569      8565      8564      8567      8570
      8566      8564      8567      8568      8566      8564      8567      8569
      8566      8564      8567      8570      8567      8570      8573      8574
      8567      8570      8573      8575      8567      8570      8573      8576
      8568      8567      8570      8571      8568      8567      8570      8572
      8568      8567      8570      8573      8569      8567      8570      8571
      8569      8567      8570      8572      8569      8567      8570      8573
      8571      8570      8573      8574      8571      8570      8573      8575
      8571      8570      8573      8576      8572      8570      8573      8574
      8572      8570      8573      8575      8572      8570      8573      8576

       128 !NIMPHI: impropers
        31        30        33        32        40        39        42        41
       165       164       167       166       174       173       176       175
       299       298       301       300       308       307       310       309
       433       432       435       434       442       441       444       443
       567       566       569       568       576       575       578       577
       701       700       703       702       710       709       712       711
       835       834       837       836       844       843       846       845
       969       968       971       970       978       977       980       979
      1103      1102      1105      1104      1112      1111      1114      1113
      1237      1236      1239      1238      1246      1245      1248      1247
      1371      1370      1373      1372      1380      1379      1382      1381
      1505      1504      1507      1506      1514      1513      1516      1515
      1639      1638      1641      1640      1648      1647      1650      1649
      1773      1772      1775      1774      1782      1781      1784      1783
      1907      1906      1909      1908      1916      1915      1918      1917
      2041      2040      2043      2042      2050      2049      2052      2051
      2175      2174      2177      2176      2184      2183      2186      2185
      2309      2308      2311      2310      2318      2317      2320      2319
      2443      2442      2445      2444      2452      2451      2454      2453
      2577      2576      2579      2578      2586      2585      2588      2587
      2711      2710      2713      2712      2720      2719      2722      2721
      2845      2844      2847      2846      2854      2853      2856      2855
      2979      2978      2981      2980      2988      2987      2990      2989
      3113      3112      3115      3114      3122      3121      3124      3123
      3247      3246      3249      3248      3256      3255      3258      3257
      3381      3380      3383      3382      3390      3389      3392      3391
      3515      3514      3517      3516      3524      3523      3526      3525
      3649      3648      3651      3650      3658      3657      3660      3659
      3783      3782      3785      3784      3792      3791      3794      3793
      3917      3916      3919      3918      3926      3925      3928      3927
      4051      4050      4053      4052      4060      4059      4062      4061
      4185      4184      4187      4186      4194      4193      4196      4195
      4319      4318      4321      4320      4328      4327      4330      4329
      4453      4452      4455      4454      4462      4461      4464      4463
      4587      4586      4589      4588      4596      4595      4598      4597
      4721      4720      4723      4722      4730      4729      4732      4731
      4855      4854      4857      4856      4864      4863      4866      4865
      4989      4988      4991      4990      4998      4997      5000      4999
      5123      5122      5125      5124      5132      5131      5134      5133
      5257      5256      5259      5258      5266      5265      5268      5267
      5391      5390      5393      5392      5400      5399      5402      5401
      5525      5524      5527      5526      5534      5533      5536      5535
      5659      5658      5661      5660      5668      5667      5670      5669
      5793      5792      5795      5794      5802      5801      5804      5803
      5927      5926      5929      5928      5936      5935      5938      5937
      6061      6060      6063      6062      6070      6069      6072      6071
      6195      6194      6197      6196      6204      6203      6206      6205
      6329      6328      6331      6330      6338      6337      6340      6339
      6463      6462      6465      6464      6472      6471      6474      6473
      6597      6596      6599      6598      6606      6605      6608      6607
      6731      6730      6733      6732      6740      6739      6742      6741
      6865      6864      6867      6866      6874      6873      6876      6875
      6999      6998      7001      7000      7008      7007      7010      7009
      7133      7132      7135      7134      7142      7141      7144      7143
      7267      7266      7269      7268      7276      7275      7278      7277
      7401      7400      7403      7402      7410      7409      7412      7411
      7535      7534      7537      7536      7544      7543      7546      7545
      7669      7668      7671      7670      7678      7677      7680      7679
      7803      7802      7805      7804      7812      7811      7814      7813
      7937      7936      7939      7938      7946      7945      7948      7947
      8071      8070      8073      8072      8080      8079      8082      8081
      8205      8204      8207      8206      8214      8213      8216      8215
      8339      8338      8341      8340      8348      8347      8350      8349
      8473      8472      8475      8474      8482      8481      8484      8483

     14160 !NDON: donors
      8577      8578      8577      8579      8580      8581      8580      8582
      8583      8584      8583      8585      8586      8587      8586      8588
      8589      8590      8589      8591      8592      8593      8592      8594
      8595      8596      8595      8597      8598      8599      8598      8600
      8601      8602      8601      8603      8604      8605      8604      8606
      8607      8608      8607      8609      8610      8611      8610      8612
      8613      8614      8613      8615      8616      8617      8616      8618
      8619      8620      8619      8621      8622      8623      8622      8624
      8625      8626      8625      8627      8628      8629      8628      8630
      8631      8632      8631      8633      8634      8635      8634      8636
      8637      8638      8637      8639      8640      8641      8640      8642
      8643      8644      8643      8645      8646      8647      8646      8648
      8649      8650      8649      8651      8652      8653      8652      8654
      8655      8656      8655      8657      8658      8659      8658      8660
      8661      8662      8661      8663      8664      8665      8664      8666
      8667      8668      8667      8669      8670      8671      8670      8672
      8673      8674      8673      8675      8676      8677      8676      8678
      8679      8680      8679      8681      8682      8683      8682      8684
      8685      8686      8685      8687      8688      8689      8688      8690
      8691      8692      8691      8693      8694      8695      8694      8696
      8697      8698      8697      8699      8700      8701      8700      8702
      8703      8704      8703      8705      8706      8707      8706      8708
      8709      8710      8709      8711      8712      8713      8712      8714
      8715      8716      8715      8717      8718      8719      8718      8720
      8721      8722      8721      8723      8724      8725      8724      8726
      8727      8728      8727      8729      8730      8731      8730      8732
      8733      8734      8733      8735      8736      8737      8736      8738
      8739      8740      8739      8741      8742      8743      8742      8744
      8745      8746      8745      8747      8748      8749      8748      8750
      8751      8752      8751      8753      8754      8755      8754      8756
      8757      8758      8757      8759      8760      8761      8760      8762
      8763      8764      8763      8765      8766      8767      8766      8768
      8769      8770      8769      8771      8772      8773      8772      8774
      8775      8776      8775      8777      8778      8779      8778      8780
      8781      8782      8781      8783      8784      8785      8784      8786
      8787      8788      8787      8789      8790      8791      8790      8792
      8793      8794      8793      8795      8796      8797      8796      8798
      8799      8800      8799      8801      8802      8803      8802      8804
      8805      8806      8805      8807      8808      8809      8808      8810
      8811      8812      8811      8813      8814      8815      8814      8816
      8817      8818      8817      8819      8820      8821      8820      8822
      8823      8824      8823      8825      8826      8827      8826      8828
      8829      8830      8829      8831      8832      8833      8832      8834
      8835      8836      8835      8837      8838      8839      8838      8840
      8841      8842      8841      8843      8844      8845      8844      8846
      8847      8848      8847      8849      8850      8851      8850      8852
      8853      8854      8853      8855      8856      8857      8856      8858
      8859      8860      8859      8861      8862      8863      8862      8864
      8865      8866      8865      8867      8868      8869      8868      8870
      8871      8872      8871      8873      8874      8875      8874      8876
      8877      8878      8877      8879      8880      8881      8880      8882
      8883      8884      8883      8885      8886      8887      8886      8888
      8889      8890      8889      8891      8892      8893      8892      8894
      8895      8896      8895      8897      8898      8899      8898      8900
      8901      8902      8901      8903      8904      8905      8904      8906
      8907      8908      8907      8909      8910      8911      8910      8912
      8913      8914      8913      8915      8916      8917      8916      8918
      8919      8920      8919      8921      8922      8923      8922      8924
      8925      8926      8925      8927      8928      8929      8928      8930
      8931      8932      8931      8933      8934      8935      8934      8936
      8937      8938      8937      8939      8940      8941      8940      8942
      8943      8944      8943      8945      8946      8947      8946      8948
      8949      8950      8949      8951      8952      8953      8952      8954
      8955      8956      8955      8957      8958      8959      8958      8960
      8961      8962      8961      8963      8964      8965      8964      8966
      8967      8968      8967      8969      8970      8971      8970      8972
      8973      8974      8973      8975      8976      8977      8976      8978
      8979      8980      8979      8981      8982      8983      8982      8984
      8985      8986      8985      8987      8988      8989      8988      8990
      8991      8992      8991      8993      8994      8995      8994      8996
      8997      8998      8997      8999      9000      9001      9000      9002
      9003      9004      9003      9005      9006      9007      9006      9008
      9009      9010      9009      9011      9012      9013      9012      9014
      9015      9016      9015      9017      9018      9019      9018      9020
      9021      9022      9021      9023      9024      9025      9024      9026
      9027      9028      9027      9029      9030      9031      9030      9032
      9033      9034      9033      9035      9036      9037      9036      9038
      9039      9040      9039      9041      9042      9043      9042      9044
      9045      9046      9045      9047      9048      9049      9048      9050
      9051      9052      9051      9053      9054      9055      9054      9056
      9057      9058      9057      9059      9060      9061      9060      9062
      9063      9064      9063      9065      9066      9067      9066      9068
      9069      9070      9069      9071      9072      9073      9072      9074
      9075      9076      9075      9077      9078      9079      9078      9080
      9081      9082      9081      9083      9084      9085      9084      9086
      9087      9088      9087      9089      9090      9091      9090      9092
      9093      9094      9093      9095      9096      9097      9096      9098
      9099      9100      9099      9101      9102      9103      9102      9104
      9105      9106      9105      9107      9108      9109      9108      9110
      9111      9112      9111      9113      9114      9115      9114      9116
      9117      9118      9117      9119      9120      9121      9120      9122
      9123      9124      9123      9125      9126      9127      9126      9128
      9129      9130      9129      9131      9132      9133      9132      9134
      9135      9136      9135      9137      9138      9139      9138      9140
      9141      9142      9141      9143      9144      9145      9144      9146
      9147      9148      9147      9149      9150      9151      9150      9152
      9153      9154      9153      9155      9156      9157      9156      9158
      9159      9160      9159      9161      9162      9163      9162      9164
      9165      9166      9165      9167      9168      9169      9168      9170
      9171      9172      9171      9173      9174      9175      9174      9176
      9177      9178      9177      9179      9180      9181      9180      9182
      9183      9184      9183      9185      9186      9187      9186      9188
      9189      9190      9189      9191      9192      9193      9192      9194
      9195      9196      9195      9197      9198      9199      9198      9200
      9201      9202      9201      9203      9204      9205      9204      9206
      9207      9208      9207      9209      9210      9211      9210      9212
      9213      9214      9213      9215      9216      9217      9216      9218
      9219      9220      9219      9221      9222      9223      9222      9224
      9225      9226      9225      9227      9228      9229      9228      9230
      9231      9232      9231      9233      9234      9235      9234      9236
      9237      9238      9237      9239      9240      9241      9240      9242
      9243      9244      9243      9245      9246      9247      9246      9248
      9249      9250      9249      9251      9252      9253      9252      9254
      9255      9256      9255      9257      9258      9259      9258      9260
      9261      9262      9261      9263      9264      9265      9264      9266
      9267      9268      9267      9269      9270      9271      9270      9272
      9273      9274      9273      9275      9276      9277      9276      9278
      9279      9280      9279      9281      9282      9283      9282      9284
      9285      9286      9285      9287      9288      9289      9288      9290
      9291      9292      9291      9293      9294      9295      9294      9296
      9297      9298      9297      9299      9300      9301      9300      9302
      9303      9304      9303      9305      9306      9307      9306      9308
      9309      9310      9309      9311      9312      9313      9312      9314
      9315      9316      9315      9317      9318      9319      9318      9320
      9321      9322      9321      9323      9324      9325      9324      9326
      9327      9328      9327      9329      9330      9331      9330      9332
      9333      9334      9333      9335      9336      9337      9336      9338
      9339      9340      9339      9341      9342      9343      9342      9344
      9345      9346      9345      9347      9348      9349      9348      9350
      9351      9352      9351      9353      9354      9355      9354      9356
      9357      9358      9357      9359      9360      9361      9360      9362
      9363      9364      9363      9365      9366      9367      9366      9368
      9369      9370      9369      9371      9372      9373      9372      9374
      9375      9376      9375      9377      9378      9379      9378      9380
      9381      9382      9381      9383      9384      9385      9384      9386
      9387      9388      9387      9389      9390      9391      9390      9392
      9393      9394      9393      9395      9396      9397      9396      9398
      9399      9400      9399      9401      9402      9403      9402      9404
      9405      9406      9405      9407      9408      9409      9408      9410
      9411      9412      9411      9413      9414      9415      9414      9416
      9417      9418      9417      9419      9420      9421      9420      9422
      9423      9424      9423      9425      9426      9427      9426      9428
      9429      9430      9429      9431      9432      9433      9432      9434
      9435      9436      9435      9437      9438      9439      9438      9440
      9441      9442      9441      9443      9444      9445      9444      9446
      9447      9448      9447      9449      9450      9451      9450      9452
      9453      9454      9453      9455      9456      9457      9456      9458
      9459      9460      9459      9461      9462      9463      9462      9464
      9465      9466      9465      9467      9468      9469      9468      9470
      9471      9472      9471      9473      9474      9475      9474      9476
      9477      9478      9477      9479      9480      9481      9480      9482
      9483      9484      9483      9485      9486      9487      9486      9488
      9489      9490      9489      9491      9492      9493      9492      9494
      9495      9496      9495      9497      9498      9499      9498      9500
      9501      9502      9501      9503      9504      9505      9504      9506
      9507      9508      9507      9509      9510      9511      9510      9512
      9513      9514      9513      9515      9516      9517      9516      9518
      9519      9520      9519      9521      9522      9523      9522      9524
      9525      9526      9525      9527      9528      9529      9528      9530
      9531      9532      9531      9533      9534      9535      9534      9536
      9537      9538      9537      9539      9540      9541      9540      9542
      9543      9544      9543      9545      9546      9547      9546      9548
      9549      9550      9549      9551      9552      9553      9552      9554
      9555      9556      9555      9557      9558      9559      9558      9560
      9561      9562      9561      9563      9564      9565      9564      9566
      9567      9568      9567      9569      9570      9571      9570      9572
      9573      9574      9573      9575      9576      9577      9576      9578
      9579      9580      9579      9581      9582      9583      9582      9584
      9585      9586      9585      9587      9588      9589      9588      9590
      9591      9592      9591      9593      9594      9595      9594      9596
      9597      9598      9597      9599      9600      9601      9600      9602
      9603      9604      9603      9605      9606      9607      9606      9608
      9609      9610      9609      9611      9612      9613      9612      9614
      9615      9616      9615      9617      9618      9619      9618      9620
      9621      9622      9621      9623      9624      9625      9624      9626
      9627      9628      9627      9629      9630      9631      9630      9632
      9633      9634      9633      9635      9636      9637      9636      9638
      9639      9640      9639      9641      9642      9643      9642      9644
      9645      9646      9645      9647      9648      9649      9648      9650
      9651      9652      9651      9653      9654      9655      9654      9656
      9657      9658      9657      9659      9660      9661      9660      9662
      9663      9664      9663      9665      9666      9667      9666      9668
      9669      9670      9669      9671      9672      9673      9672      9674
      9675      9676      9675      9677      9678      9679      9678      9680
      9681      9682      9681      9683      9684      9685      9684      9686
      9687      9688      9687      9689      9690      9691      9690      9692
      9693      9694      9693      9695      9696      9697      9696      9698
      9699      9700      9699      9701      9702      9703      9702      9704
      9705      9706      9705      9707      9708      9709      9708      9710
      9711      9712      9711      9713      9714      9715      9714      9716
      9717      9718      9717      9719      9720      9721      9720      9722
      9723      9724      9723      9725      9726      9727      9726      9728
      9729      9730      9729      9731      9732      9733      9732      9734
      9735      9736      9735      9737      9738      9739      9738      9740
      9741      9742      9741      9743      9744      9745      9744      9746
      9747      9748      9747      9749      9750      9751      9750      9752
      9753      9754      9753      9755      9756      9757      9756      9758
      9759      9760      9759      9761      9762      9763      9762      9764
      9765      9766      9765      9767      9768      9769      9768      9770
      9771      9772      9771      9773      9774      9775      9774      9776
      9777      9778      9777      9779      9780      9781      9780      9782
      9783      9784      9783      9785      9786      9787      9786      9788
      9789      9790      9789      9791      9792      9793      9792      9794
      9795      9796      9795      9797      9798      9799      9798      9800
      9801      9802      9801      9803      9804      9805      9804      9806
      9807      9808      9807      9809      9810      9811      9810      9812
      9813      9814      9813      9815      9816      9817      9816      9818
      9819      9820      9819      9821      9822      9823      9822      9824
      9825      9826      9825      9827      9828      9829      9828      9830
      9831      9832      9831      9833      9834      9835      9834      9836
      9837      9838      9837      9839      9840      9841      9840      9842
      9843      9844      9843      9845      9846      9847      9846      9848
      9849      9850      9849      9851      9852      9853      9852      9854
      9855      9856      9855      9857      9858      9859      9858      9860
      9861      9862      9861      9863      9864      9865      9864      9866
      9867      9868      9867      9869      9870      9871      9870      9872
      9873      9874      9873      9875      9876      9877      9876      9878
      9879      9880      9879      9881      9882      9883      9882      9884
      9885      9886      9885      9887      9888      9889      9888      9890
      9891      9892      9891      9893      9894      9895      9894      9896
      9897      9898      9897      9899      9900      9901      9900      9902
      9903      9904      9903      9905      9906      9907      9906      9908
      9909      9910      9909      9911      9912      9913      9912      9914
      9915      9916      9915      9917      9918      9919      9918      9920
      9921      9922      9921      9923      9924      9925      9924      9926
      9927      9928      9927      9929      9930      9931      9930      9932
      9933      9934      9933      9935      9936      9937      9936      9938
      9939      9940      9939      9941      9942      9943      9942      9944
      9945      9946      9945      9947      9948      9949      9948      9950
      9951      9952      9951      9953      9954      9955      9954      9956
      9957      9958      9957      9959      9960      9961      9960      9962
      9963      9964      9963      9965      9966      9967      9966      9968
      9969      9970      9969      9971      9972      9973      9972      9974
      9975      9976      9975      9977      9978      9979      9978      9980
      9981      9982      9981      9983      9984      9985      9984      9986
      9987      9988      9987      9989      9990      9991      9990      9992
      9993      9994      9993      9995      9996      9997      9996      9998
      9999     10000      9999     10001     10002     10003     10002     10004
     10005     10006     10005     10007     10008     10009     10008     10010
     10011     10012     10011     10013     10014     10015     10014     10016
     10017     10018     10017     10019     10020     10021     10020     10022
     10023     10024     10023     10025     10026     10027     10026     10028
     10029     10030     10029     10031     10032     10033     10032     10034
     10035     10036     10035     10037     10038     10039     10038     10040
     10041     10042     10041     10043     10044     10045     10044     10046
     10047     10048     10047     10049     10050     10051     10050     10052
     10053     10054     10053     10055     10056     10057     10056     10058
     10059     10060     10059     10061     10062     10063     10062     10064
     10065     10066     10065     10067     10068     10069     10068     10070
     10071     10072     10071     10073     10074     10075     10074     10076
     10077     10078     10077     10079     10080     10081     10080     10082
     10083     10084     10083     10085     10086     10087     10086     10088
     10089     10090     10089     10091     10092     10093     10092     10094
     10095     10096     10095     10097     10098     10099     10098     10100
     10101     10102     10101     10103     10104     10105     10104     10106
     10107     10108     10107     10109     10110     10111     10110     10112
     10113     10114     10113     10115     10116     10117     10116     10118
     10119     10120     10119     10121     10122     10123     10122     10124
     10125     10126     10125     10127     10128     10129     10128     10130
     10131     10132     10131     10133     10134     10135     10134     10136
     10137     10138     10137     10139     10140     10141     10140     10142
     10143     10144     10143     10145     10146     10147     10146     10148
     10149     10150     10149     10151     10152     10153     10152     10154
     10155     10156     10155     10157     10158     10159     10158     10160
     10161     10162     10161     10163     10164     10165     10164     10166
     10167     10168     10167     10169     10170     10171     10170     10172
     10173     10174     10173     10175     10176     10177     10176     10178
     10179     10180     10179     10181     10182     10183     10182     10184
     10185     10186     10185     10187     10188     10189     10188     10190
     10191     10192     10191     10193     10194     10195     10194     10196
     10197     10198     10197     10199     10200     10201     10200     10202
     10203     10204     10203     10205     10206     10207     10206     10208
     10209     10210     10209     10211     10212     10213     10212     10214
     10215     10216     10215     10217     10218     10219     10218     10220
     10221     10222     10221     10223     10224     10225     10224     10226
     10227     10228     10227     10229     10230     10231     10230     10232
     10233     10234     10233     10235     10236     10237     10236     10238
     10239     10240     10239     10241     10242     10243     10242     10244
     10245     10246     10245     10247     10248     10249     10248     10250
     10251     10252     10251     10253     10254     10255     10254     10256
     10257     10258     10257     10259     10260     10261     10260     10262
     10263     10264     10263     10265     10266     10267     10266     10268
     10269     10270     10269     10271     10272     10273     10272     10274
     10275     10276     10275     10277     10278     10279     10278     10280
     10281     10282     10281     10283     10284     10285     10284     10286
     10287     10288     10287     10289     10290     10291     10290     10292
     10293     10294     10293     10295     10296     10297     10296     10298
     10299     10300     10299     10301     10302     10303     10302     10304
     10305     10306     10305     10307     10308     10309     10308     10310
     10311     10312     10311     10313     10314     10315     10314     10316
     10317     10318     10317     10319     10320     10321     10320     10322
     10323     10324     10323     10325     10326     10327     10326     10328
     10329     10330     10329     10331     10332     10333     10332     10334
     10335     10336     10335     10337     10338     10339     10338     10340
     10341     10342     10341     10343     10344     10345     10344     10346
     10347     10348     10347     10349     10350     10351     10350     10352
     10353     10354     10353     10355     10356     10357     10356     10358
     10359     10360     10359     10361     10362     10363     10362     10364
     10365     10366     10365     10367     10368     10369     10368     10370
     10371     10372     10371     10373     10374     10375     10374     10376
     10377     10378     10377     10379     10380     10381     10380     10382
     10383     10384     10383     10385     10386     10387     10386     10388
     10389     10390     10389     10391     10392     10393     10392     10394
     10395     10396     10395     10397     10398     10399     10398     10400
     10401     10402     10401     10403     10404     10405     10404     10406
     10407     10408     10407     10409     10410     10411     10410     10412
     10413     10414     10413     10415     10416     10417     10416     10418
     10419     10420     10419     10421     10422     10423     10422     10424
     10425     10426     10425     10427     10428     10429     10428     10430
     10431     10432     10431     10433     10434     10435     10434     10436
     10437     10438     10437     10439     10440     10441     10440     10442
     10443     10444     10443     10445     10446     10447     10446     10448
     10449     10450     10449     10451     10452     10453     10452     10454
     10455     10456     10455     10457     10458     10459     10458     10460
     10461     10462     10461     10463     10464     10465     10464     10466
     10467     10468     10467     10469     10470     10471     10470     10472
     10473     10474     10473     10475     10476     10477     10476     10478
     10479     10480     10479     10481     10482     10483     10482     10484
     10485     10486     10485     10487     10488     10489     10488     10490
     10491     10492     10491     10493     10494     10495     10494     10496
     10497     10498     10497     10499     10500     10501     10500     10502
     10503     10504     10503     10505     10506     10507     10506     10508
     10509     10510     10509     10511     10512     10513     10512     10514
     10515     10516     10515     10517     10518     10519     10518     10520
     10521     10522     10521     10523     10524     10525     10524     10526
     10527     10528     10527     10529     10530     10531     10530     10532
     10533     10534     10533     10535     10536     10537     10536     10538
     10539     10540     10539     10541     10542     10543     10542     10544
     10545     10546     10545     10547     10548     10549     10548     10550
     10551     10552     10551     10553     10554     10555     10554     10556
     10557     10558     10557     10559     10560     10561     10560     10562
     10563     10564     10563     10565     10566     10567     10566     10568
     10569     10570     10569     10571     10572     10573     10572     10574
     10575     10576     10575     10577     10578     10579     10578     10580
     10581     10582     10581     10583     10584     10585     10584     10586
     10587     10588     10587     10589     10590     10591     10590     10592
     10593     10594     10593     10595     10596     10597     10596     10598
     10599     10600     10599     10601     10602     10603     10602     10604
     10605     10606     10605     10607     10608     10609     10608     10610
     10611     10612     10611     10613     10614     10615     10614     10616
     10617     10618     10617     10619     10620     10621     10620     10622
     10623     10624     10623     10625     10626     10627     10626     10628
     10629     10630     10629     10631     10632     10633     10632     10634
     10635     10636     10635     10637     10638     10639     10638     10640
     10641     10642     10641     10643     10644     10645     10644     10646
     10647     10648     10647     10649     10650     10651     10650     10652
     10653     10654     10653     10655     10656     10657     10656     10658
     10659     10660     10659     10661     10662     10663     10662     10664
     10665     10666     10665     10667     10668     10669     10668     10670
     10671     10672     10671     10673     10674     10675     10674     10676
     10677     10678     10677     10679     10680     10681     10680     10682
     10683     10684     10683     10685     10686     10687     10686     10688
     10689     10690     10689     10691     10692     10693     10692     10694
     10695     10696     10695     10697     10698     10699     10698     10700
     10701     10702     10701     10703     10704     10705     10704     10706
     10707     10708     10707     10709     10710     10711     10710     10712
     10713     10714     10713     10715     10716     10717     10716     10718
     10719     10720     10719     10721     10722     10723     10722     10724
     10725     10726     10725     10727     10728     10729     10728     10730
     10731     10732     10731     10733     10734     10735     10734     10736
     10737     10738     10737     10739     10740     10741     10740     10742
     10743     10744     10743     10745     10746     10747     10746     10748
     10749     10750     10749     10751     10752     10753     10752     10754
     10755     10756     10755     10757     10758     10759     10758     10760
     10761     10762     10761     10763     10764     10765     10764     10766
     10767     10768     10767     10769     10770     10771     10770     10772
     10773     10774     10773     10775     10776     10777     10776     10778
     10779     10780     10779     10781     10782     10783     10782     10784
     10785     10786     10785     10787     10788     10789     10788     10790
     10791     10792     10791     10793     10794     10795     10794     10796
     10797     10798     10797     10799     10800     10801     10800     10802
     10803     10804     10803     10805     10806     10807     10806     10808
     10809     10810     10809     10811     10812     10813     10812     10814
     10815     10816     10815     10817     10818     10819     10818     10820
     10821     10822     10821     10823     10824     10825     10824     10826
     10827     10828     10827     10829     10830     10831     10830     10832
     10833     10834     10833     10835     10836     10837     10836     10838
     10839     10840     10839     10841     10842     10843     10842     10844
     10845     10846     10845     10847     10848     10849     10848     10850
     10851     10852     10851     10853     10854     10855     10854     10856
     10857     10858     10857     10859     10860     10861     10860     10862
     10863     10864     10863     10865     10866     10867     10866     10868
     10869     10870     10869     10871     10872     10873     10872     10874
     10875     10876     10875     10877     10878     10879     10878     10880
     10881     10882     10881     10883     10884     10885     10884     10886
     10887     10888     10887     10889     10890     10891     10890     10892
     10893     10894     10893     10895     10896     10897     10896     10898
     10899     10900     10899     10901     10902     10903     10902     10904
     10905     10906     10905     10907     10908     10909     10908     10910
     10911     10912     10911     10913     10914     10915     10914     10916
     10917     10918     10917     10919     10920     10921     10920     10922
     10923     10924     10923     10925     10926     10927     10926     10928
     10929     10930     10929     10931     10932     10933     10932     10934
     10935     10936     10935     10937     10938     10939     10938     10940
     10941     10942     10941     10943     10944     10945     10944     10946
     10947     10948     10947     10949     10950     10951     10950     10952
     10953     10954     10953     10955     10956     10957     10956     10958
     10959     10960     10959     10961     10962     10963     10962     10964
     10965     10966     10965     10967     10968     10969     10968     10970
     10971     10972     10971     10973     10974     10975     10974     10976
     10977     10978     10977     10979     10980     10981     10980     10982
     10983     10984     10983     10985     10986     10987     10986     10988
     10989     10990     10989     10991     10992     10993     10992     10994
     10995     10996     10995     10997     10998     10999     10998     11000
     11001     11002     11001     11003     11004     11005     11004     11006
     11007     11008     11007     11009     11010     11011     11010     11012
     11013     11014     11013     11015     11016     11017     11016     11018
     11019     11020     11019     11021     11022     11023     11022     11024
     11025     11026     11025     11027     11028     11029     11028     11030
     11031     11032     11031     11033     11034     11035     11034     11036
     11037     11038     11037     11039     11040     11041     11040     11042
     11043     11044     11043     11045     11046     11047     11046     11048
     11049     11050     11049     11051     11052     11053     11052     11054
     11055     11056     11055     11057     11058     11059     11058     11060
     11061     11062     11061     11063     11064     11065     11064     11066
     11067     11068     11067     11069     11070     11071     11070     11072
     11073     11074     11073     11075     11076     11077     11076     11078
     11079     11080     11079     11081     11082     11083     11082     11084
     11085     11086     11085     11087     11088     11089     11088     11090
     11091     11092     11091     11093     11094     11095     11094     11096
     11097     11098     11097     11099     11100     11101     11100     11102
     11103     11104     11103     11105     11106     11107     11106     11108
     11109     11110     11109     11111     11112     11113     11112     11114
     11115     11116     11115     11117     11118     11119     11118     11120
     11121     11122     11121     11123     11124     11125     11124     11126
     11127     11128     11127     11129     11130     11131     11130     11132
     11133     11134     11133     11135     11136     11137     11136     11138
     11139     11140     11139     11141     11142     11143     11142     11144
     11145     11146     11145     11147     11148     11149     11148     11150
     11151     11152     11151     11153     11154     11155     11154     11156
     11157     11158     11157     11159     11160     11161     11160     11162
     11163     11164     11163     11165     11166     11167     11166     11168
     11169     11170     11169     11171     11172     11173     11172     11174
     11175     11176     11175     11177     11178     11179     11178     11180
     11181     11182     11181     11183     11184     11185     11184     11186
     11187     11188     11187     11189     11190     11191     11190     11192
     11193     11194     11193     11195     11196     11197     11196     11198
     11199     11200     11199     11201     11202     11203     11202     11204
     11205     11206     11205     11207     11208     11209     11208     11210
     11211     11212     11211     11213     11214     11215     11214     11216
     11217     11218     11217     11219     11220     11221     11220     11222
     11223     11224     11223     11225     11226     11227     11226     11228
     11229     11230     11229     11231     11232     11233     11232     11234
     11235     11236     11235     11237     11238     11239     11238     11240
     11241     11242     11241     11243     11244     11245     11244     11246
     11247     11248     11247     11249     11250     11251     11250     11252
     11253     11254     11253     11255     11256     11257     11256     11258
     11259     11260     11259     11261     11262     11263     11262     11264
     11265     11266     11265     11267     11268     11269     11268     11270
     11271     11272     11271     11273     11274     11275     11274     11276
     11277     11278     11277     11279     11280     11281     11280     11282
     11283     11284     11283     11285     11286     11287     11286     11288
     11289     11290     11289     11291     11292     11293     11292     11294
     11295     11296     11295     11297     11298     11299     11298     11300
     11301     11302     11301     11303     11304     11305     11304     11306
     11307     11308     11307     11309     11310     11311     11310     11312
     11313     11314     11313     11315     11316     11317     11316     11318
     11319     11320     11319     11321     11322     11323     11322     11324
     11325     11326     11325     11327     11328     11329     11328     11330
     11331     11332     11331     11333     11334     11335     11334     11336
     11337     11338     11337     11339     11340     11341     11340     11342
     11343     11344     11343     11345     11346     11347     11346     11348
     11349     11350     11349     11351     11352     11353     11352     11354
     11355     11356     11355     11357     11358     11359     11358     11360
     11361     11362     11361     11363     11364     11365     11364     11366
     11367     11368     11367     11369     11370     11371     11370     11372
     11373     11374     11373     11375     11376     11377     11376     11378
     11379     11380     11379     11381     11382     11383     11382     11384
     11385     11386     11385     11387     11388     11389     11388     11390
     11391     11392     11391     11393     11394     11395     11394     11396
     11397     11398     11397     11399     11400     11401     11400     11402
     11403     11404     11403     11405     11406     11407     11406     11408
     11409     11410     11409     11411     11412     11413     11412     11414
     11415     11416     11415     11417     11418     11419     11418     11420
     11421     11422     11421     11423     11424     11425     11424     11426
     11427     11428     11427     11429     11430     11431     11430     11432
     11433     11434     11433     11435     11436     11437     11436     11438
     11439     11440     11439     11441     11442     11443     11442     11444
     11445     11446     11445     11447     11448     11449     11448     11450
     11451     11452     11451     11453     11454     11455     11454     11456
     11457     11458     11457     11459     11460     11461     11460     11462
     11463     11464     11463     11465     11466     11467     11466     11468
     11469     11470     11469     11471     11472     11473     11472     11474
     11475     11476     11475     11477     11478     11479     11478     11480
     11481     11482     11481     11483     11484     11485     11484     11486
     11487     11488     11487     11489     11490     11491     11490     11492
     11493     11494     11493     11495     11496     11497     11496     11498
     11499     11500     11499     11501     11502     11503     11502     11504
     11505     11506     11505     11507     11508     11509     11508     11510
     11511     11512     11511     11513     11514     11515     11514     11516
     11517     11518     11517     11519     11520     11521     11520     11522
     11523     11524     11523     11525     11526     11527     11526     11528
     11529     11530     11529     11531     11532     11533     11532     11534
     11535     11536     11535     11537     11538     11539     11538     11540
     11541     11542     11541     11543     11544     11545     11544     11546
     11547     11548     11547     11549     11550     11551     11550     11552
     11553     11554     11553     11555     11556     11557     11556     11558
     11559     11560     11559     11561     11562     11563     11562     11564
     11565     11566     11565     11567     11568     11569     11568     11570
     11571     11572     11571     11573     11574     11575     11574     11576
     11577     11578     11577     11579     11580     11581     11580     11582
     11583     11584     11583     11585     11586     11587     11586     11588
     11589     11590     11589     11591     11592     11593     11592     11594
     11595     11596     11595     11597     11598     11599     11598     11600
     11601     11602     11601     11603     11604     11605     11604     11606
     11607     11608     11607     11609     11610     11611     11610     11612
     11613     11614     11613     11615     11616     11617     11616     11618
     11619     11620     11619     11621     11622     11623     11622     11624
     11625     11626     11625     11627     11628     11629     11628     11630
     11631     11632     11631     11633     11634     11635     11634     11636
     11637     11638     11637     11639     11640     11641     11640     11642
     11643     11644     11643     11645     11646     11647     11646     11648
     11649     11650     11649     11651     11652     11653     11652     11654
     11655     11656     11655     11657     11658     11659     11658     11660
     11661     11662     11661     11663     11664     11665     11664     11666
     11667     11668     11667     11669     11670     11671     11670     11672
     11673     11674     11673     11675     11676     11677     11676     11678
     11679     11680     11679     11681     11682     11683     11682     11684
     11685     11686     11685     11687     11688     11689     11688     11690
     11691     11692     11691     11693     11694     11695     11694     11696
     11697     11698     11697     11699     11700     11701     11700     11702
     11703     11704     11703     11705     11706     11707     11706     11708
     11709     11710     11709     11711     11712     11713     11712     11714
     11715     11716     11715     11717     11718     11719     11718     11720
     11721     11722     11721     11723     11724     11725     11724     11726
     11727     11728     11727     11729     11730     11731     11730     11732
     11733     11734     11733     11735     11736     11737     11736     11738
     11739     11740     11739     11741     11742     11743     11742     11744
     11745     11746     11745     11747     11748     11749     11748     11750
     11751     11752     11751     11753     11754     11755     11754     11756
     11757     11758     11757     11759     11760     11761     11760     11762
     11763     11764     11763     11765     11766     11767     11766     11768
     11769     11770     11769     11771     11772     11773     11772     11774
     11775     11776     11775     11777     11778     11779     11778     11780
     11781     11782     11781     11783     11784     11785     11784     11786
     11787     11788     11787     11789     11790     11791     11790     11792
     11793     11794     11793     11795     11796     11797     11796     11798
     11799     11800     11799     11801     11802     11803     11802     11804
     11805     11806     11805     11807     11808     11809     11808     11810
     11811     11812     11811     11813     11814     11815     11814     11816
     11817     11818     11817     11819     11820     11821     11820     11822
     11823     11824     11823     11825     11826     11827     11826     11828
     11829     11830     11829     11831     11832     11833     11832     11834
     11835     11836     11835     11837     11838     11839     11838     11840
     11841     11842     11841     11843     11844     11845     11844     11846
     11847     11848     11847     11849     11850     11851     11850     11852
     11853     11854     11853     11855     11856     11857     11856     11858
     11859     11860     11859     11861     11862     11863     11862     11864
     11865     11866     11865     11867     11868     11869     11868     11870
     11871     11872     11871     11873     11874     11875     11874     11876
     11877     11878     11877     11879     11880     11881     11880     11882
     11883     11884     11883     11885     11886     11887     11886     11888
     11889     11890     11889     11891     11892     11893     11892     11894
     11895     11896     11895     11897     11898     11899     11898     11900
     11901     11902     11901     11903     11904     11905     11904     11906
     11907     11908     11907     11909     11910     11911     11910     11912
     11913     11914     11913     11915     11916     11917     11916     11918
     11919     11920     11919     11921     11922     11923     11922     11924
     11925     11926     11925     11927     11928     11929     11928     11930
     11931     11932     11931     11933     11934     11935     11934     11936
     11937     11938     11937     11939     11940     11941     11940     11942
     11943     11944     11943     11945     11946     11947     11946     11948
     11949     11950     11949     11951     11952     11953     11952     11954
     11955     11956     11955     11957     11958     11959     11958     11960
     11961     11962     11961     11963     11964     11965     11964     11966
     11967     11968     11967     11969     11970     11971     11970     11972
     11973     11974     11973     11975     11976     11977     11976     11978
     11979     11980     11979     11981     11982     11983     11982     11984
     11985     11986     11985     11987     11988     11989     11988     11990
     11991     11992     11991     11993     11994     11995     11994     11996
     11997     11998     11997     11999     12000     12001     12000     12002
     12003     12004     12003     12005     12006     12007     12006     12008
     12009     12010     12009     12011     12012     12013     12012     12014
     12015     12016     12015     12017     12018     12019     12018     12020
     12021     12022     12021     12023     12024     12025     12024     12026
     12027     12028     12027     12029     12030     12031     12030     12032
     12033     12034     12033     12035     12036     12037     12036     12038
     12039     12040     12039     12041     12042     12043     12042     12044
     12045     12046     12045     12047     12048     12049     12048     12050
     12051     12052     12051     12053     12054     12055     12054     12056
     12057     12058     12057     12059     12060     12061     12060     12062
     12063     12064     12063     12065     12066     12067     12066     12068
     12069     12070     12069     12071     12072     12073     12072     12074
     12075     12076     12075     12077     12078     12079     12078     12080
     12081     12082     12081     12083     12084     12085     12084     12086
     12087     12088     12087     12089     12090     12091     12090     12092
     12093     12094     12093     12095     12096     12097     12096     12098
     12099     12100     12099     12101     12102     12103     12102     12104
     12105     12106     12105     12107     12108     12109     12108     12110
     12111     12112     12111     12113     12114     12115     12114     12116
     12117     12118     12117     12119     12120     12121     12120     12122
     12123     12124     12123     12125     12126     12127     12126     12128
     12129     12130     12129     12131     12132     12133     12132     12134
     12135     12136     12135     12137     12138     12139     12138     12140
     12141     12142     12141     12143     12144     12145     12144     12146
     12147     12148     12147     12149     12150     12151     12150     12152
     12153     12154     12153     12155     12156     12157     12156     12158
     12159     12160     12159     12161     12162     12163     12162     12164
     12165     12166     12165     12167     12168     12169     12168     12170
     12171     12172     12171     12173     12174     12175     12174     12176
     12177     12178     12177     12179     12180     12181     12180     12182
     12183     12184     12183     12185     12186     12187     12186     12188
     12189     12190     12189     12191     12192     12193     12192     12194
     12195     12196     12195     12197     12198     12199     12198     12200
     12201     12202     12201     12203     12204     12205     12204     12206
     12207     12208     12207     12209     12210     12211     12210     12212
     12213     12214     12213     12215     12216     12217     12216     12218
     12219     12220     12219     12221     12222     12223     12222     12224
     12225     12226     12225     12227     12228     12229     12228     12230
     12231     12232     12231     12233     12234     12235     12234     12236
     12237     12238     12237     12239     12240     12241     12240     12242
     12243     12244     12243     12245     12246     12247     12246     12248
     12249     12250     12249     12251     12252     12253     12252     12254
     12255     12256     12255     12257     12258     12259     12258     12260
     12261     12262     12261     12263     12264     12265     12264     12266
     12267     12268     12267     12269     12270     12271     12270     12272
     12273     12274     12273     12275     12276     12277     12276     12278
     12279     12280     12279     12281     12282     12283     12282     12284
     12285     12286     12285     12287     12288     12289     12288     12290
     12291     12292     12291     12293     12294     12295     12294     12296
     12297     12298     12297     12299     12300     12301     12300     12302
     12303     12304     12303     12305     12306     12307     12306     12308
     12309     12310     12309     12311     12312     12313     12312     12314
     12315     12316     12315     12317     12318     12319     12318     12320
     12321     12322     12321     12323     12324     12325     12324     12326
     12327     12328     12327     12329     12330     12331     12330     12332
     12333     12334     12333     12335     12336     12337     12336     12338
     12339     12340     12339     12341     12342     12343     12342     12344
     12345     12346     12345     12347     12348     12349     12348     12350
     12351     12352     12351     12353     12354     12355     12354     12356
     12357     12358     12357     12359     12360     12361     12360     12362
     12363     12364     12363     12365     12366     12367     12366     12368
     12369     12370     12369     12371     12372     12373     12372     12374
     12375     12376     12375     12377     12378     12379     12378     12380
     12381     12382     12381     12383     12384     12385     12384     12386
     12387     12388     12387     12389     12390     12391     12390     12392
     12393     12394     12393     12395     12396     12397     12396     12398
     12399     12400     12399     12401     12402     12403     12402     12404
     12405     12406     12405     12407     12408     12409     12408     12410
     12411     12412     12411     12413     12414     12415     12414     12416
     12417     12418     12417     12419     12420     12421     12420     12422
     12423     12424     12423     12425     12426     12427     12426     12428
     12429     12430     12429     12431     12432     12433     12432     12434
     12435     12436     12435     12437     12438     12439     12438     12440
     12441     12442     12441     12443     12444     12445     12444     12446
     12447     12448     12447     12449     12450     12451     12450     12452
     12453     12454     12453     12455     12456     12457     12456     12458
     12459     12460     12459     12461     12462     12463     12462     12464
     12465     12466     12465     12467     12468     12469     12468     12470
     12471     12472     12471     12473     12474     12475     12474     12476
     12477     12478     12477     12479     12480     12481     12480     12482
     12483     12484     12483     12485     12486     12487     12486     12488
     12489     12490     12489     12491     12492     12493     12492     12494
     12495     12496     12495     12497     12498     12499     12498     12500
     12501     12502     12501     12503     12504     12505     12504     12506
     12507     12508     12507     12509     12510     12511     12510     12512
     12513     12514     12513     12515     12516     12517     12516     12518
     12519     12520     12519     12521     12522     12523     12522     12524
     12525     12526     12525     12527     12528     12529     12528     12530
     12531     12532     12531     12533     12534     12535     12534     12536
     12537     12538     12537     12539     12540     12541     12540     12542
     12543     12544     12543     12545     12546     12547     12546     12548
     12549     12550     12549     12551     12552     12553     12552     12554
     12555     12556     12555     12557     12558     12559     12558     12560
     12561     12562     12561     12563     12564     12565     12564     12566
     12567     12568     12567     12569     12570     12571     12570     12572
     12573     12574     12573     12575     12576     12577     12576     12578
     12579     12580     12579     12581     12582     12583     12582     12584
     12585     12586     12585     12587     12588     12589     12588     12590
     12591     12592     12591     12593     12594     12595     12594     12596
     12597     12598     12597     12599     12600     12601     12600     12602
     12603     12604     12603     12605     12606     12607     12606     12608
     12609     12610     12609     12611     12612     12613     12612     12614
     12615     12616     12615     12617     12618     12619     12618     12620
     12621     12622     12621     12623     12624     12625     12624     12626
     12627     12628     12627     12629     12630     12631     12630     12632
     12633     12634     12633     12635     12636     12637     12636     12638
     12639     12640     12639     12641     12642     12643     12642     12644
     12645     12646     12645     12647     12648     12649     12648     12650
     12651     12652     12651     12653     12654     12655     12654     12656
     12657     12658     12657     12659     12660     12661     12660     12662
     12663     12664     12663     12665     12666     12667     12666     12668
     12669     12670     12669     12671     12672     12673     12672     12674
     12675     12676     12675     12677     12678     12679     12678     12680
     12681     12682     12681     12683     12684     12685     12684     12686
     12687     12688     12687     12689     12690     12691     12690     12692
     12693     12694     12693     12695     12696     12697     12696     12698
     12699     12700     12699     12701     12702     12703     12702     12704
     12705     12706     12705     12707     12708     12709     12708     12710
     12711     12712     12711     12713     12714     12715     12714     12716
     12717     12718     12717     12719     12720     12721     12720     12722
     12723     12724     12723     12725     12726     12727     12726     12728
     12729     12730     12729     12731     12732     12733     12732     12734
     12735     12736     12735     12737     12738     12739     12738     12740
     12741     12742     12741     12743     12744     12745     12744     12746
     12747     12748     12747     12749     12750     12751     12750     12752
     12753     12754     12753     12755     12756     12757     12756     12758
     12759     12760     12759     12761     12762     12763     12762     12764
     12765     12766     12765     12767     12768     12769     12768     12770
     12771     12772     12771     12773     12774     12775     12774     12776
     12777     12778     12777     12779     12780     12781     12780     12782
     12783     12784     12783     12785     12786     12787     12786     12788
     12789     12790     12789     12791     12792     12793     12792     12794
     12795     12796     12795     12797     12798     12799     12798     12800
     12801     12802     12801     12803     12804     12805     12804     12806
     12807     12808     12807     12809     12810     12811     12810     12812
     12813     12814     12813     12815     12816     12817     12816     12818
     12819     12820     12819     12821     12822     12823     12822     12824
     12825     12826     12825     12827     12828     12829     12828     12830
     12831     12832     12831     12833     12834     12835     12834     12836
     12837     12838     12837     12839     12840     12841     12840     12842
     12843     12844     12843     12845     12846     12847     12846     12848
     12849     12850     12849     12851     12852     12853     12852     12854
     12855     12856     12855     12857     12858     12859     12858     12860
     12861     12862     12861     12863     12864     12865     12864     12866
     12867     12868     12867     12869     12870     12871     12870     12872
     12873     12874     12873     12875     12876     12877     12876     12878
     12879     12880     12879     12881     12882     12883     12882     12884
     12885     12886     12885     12887     12888     12889     12888     12890
     12891     12892     12891     12893     12894     12895     12894     12896
     12897     12898     12897     12899     12900     12901     12900     12902
     12903     12904     12903     12905     12906     12907     12906     12908
     12909     12910     12909     12911     12912     12913     12912     12914
     12915     12916     12915     12917     12918     12919     12918     12920
     12921     12922     12921     12923     12924     12925     12924     12926
     12927     12928     12927     12929     12930     12931     12930     12932
     12933     12934     12933     12935     12936     12937     12936     12938
     12939     12940     12939     12941     12942     12943     12942     12944
     12945     12946     12945     12947     12948     12949     12948     12950
     12951     12952     12951     12953     12954     12955     12954     12956
     12957     12958     12957     12959     12960     12961     12960     12962
     12963     12964     12963     12965     12966     12967     12966     12968
     12969     12970     12969     12971     12972     12973     12972     12974
     12975     12976     12975     12977     12978     12979     12978     12980
     12981     12982     12981     12983     12984     12985     12984     12986
     12987     12988     12987     12989     12990     12991     12990     12992
     12993     12994     12993     12995     12996     12997     12996     12998
     12999     13000     12999     13001     13002     13003     13002     13004
     13005     13006     13005     13007     13008     13009     13008     13010
     13011     13012     13011     13013     13014     13015     13014     13016
     13017     13018     13017     13019     13020     13021     13020     13022
     13023     13024     13023     13025     13026     13027     13026     13028
     13029     13030     13029     13031     13032     13033     13032     13034
     13035     13036     13035     13037     13038     13039     13038     13040
     13041     13042     13041     13043     13044     13045     13044     13046
     13047     13048     13047     13049     13050     13051     13050     13052
     13053     13054     13053     13055     13056     13057     13056     13058
     13059     13060     13059     13061     13062     13063     13062     13064
     13065     13066     13065     13067     13068     13069     13068     13070
     13071     13072     13071     13073     13074     13075     13074     13076
     13077     13078     13077     13079     13080     13081     13080     13082
     13083     13084     13083     13085     13086     13087     13086     13088
     13089     13090     13089     13091     13092     13093     13092     13094
     13095     13096     13095     13097     13098     13099     13098     13100
     13101     13102     13101     13103     13104     13105     13104     13106
     13107     13108     13107     13109     13110     13111     13110     13112
     13113     13114     13113     13115     13116     13117     13116     13118
     13119     13120     13119     13121     13122     13123     13122     13124
     13125     13126     13125     13127     13128     13129     13128     13130
     13131     13132     13131     13133     13134     13135     13134     13136
     13137     13138     13137     13139     13140     13141     13140     13142
     13143     13144     13143     13145     13146     13147     13146     13148
     13149     13150     13149     13151     13152     13153     13152     13154
     13155     13156     13155     13157     13158     13159     13158     13160
     13161     13162     13161     13163     13164     13165     13164     13166
     13167     13168     13167     13169     13170     13171     13170     13172
     13173     13174     13173     13175     13176     13177     13176     13178
     13179     13180     13179     13181     13182     13183     13182     13184
     13185     13186     13185     13187     13188     13189     13188     13190
     13191     13192     13191     13193     13194     13195     13194     13196
     13197     13198     13197     13199     13200     13201     13200     13202
     13203     13204     13203     13205     13206     13207     13206     13208
     13209     13210     13209     13211     13212     13213     13212     13214
     13215     13216     13215     13217     13218     13219     13218     13220
     13221     13222     13221     13223     13224     13225     13224     13226
     13227     13228     13227     13229     13230     13231     13230     13232
     13233     13234     13233     13235     13236     13237     13236     13238
     13239     13240     13239     13241     13242     13243     13242     13244
     13245     13246     13245     13247     13248     13249     13248     13250
     13251     13252     13251     13253     13254     13255     13254     13256
     13257     13258     13257     13259     13260     13261     13260     13262
     13263     13264     13263     13265     13266     13267     13266     13268
     13269     13270     13269     13271     13272     13273     13272     13274
     13275     13276     13275     13277     13278     13279     13278     13280
     13281     13282     13281     13283     13284     13285     13284     13286
     13287     13288     13287     13289     13290     13291     13290     13292
     13293     13294     13293     13295     13296     13297     13296     13298
     13299     13300     13299     13301     13302     13303     13302     13304
     13305     13306     13305     13307     13308     13309     13308     13310
     13311     13312     13311     13313     13314     13315     13314     13316
     13317     13318     13317     13319     13320     13321     13320     13322
     13323     13324     13323     13325     13326     13327     13326     13328
     13329     13330     13329     13331     13332     13333     13332     13334
     13335     13336     13335     13337     13338     13339     13338     13340
     13341     13342     13341     13343     13344     13345     13344     13346
     13347     13348     13347     13349     13350     13351     13350     13352
     13353     13354     13353     13355     13356     13357     13356     13358
     13359     13360     13359     13361     13362     13363     13362     13364
     13365     13366     13365     13367     13368     13369     13368     13370
     13371     13372     13371     13373     13374     13375     13374     13376
     13377     13378     13377     13379     13380     13381     13380     13382
     13383     13384     13383     13385     13386     13387     13386     13388
     13389     13390     13389     13391     13392     13393     13392     13394
     13395     13396     13395     13397     13398     13399     13398     13400
     13401     13402     13401     13403     13404     13405     13404     13406
     13407     13408     13407     13409     13410     13411     13410     13412
     13413     13414     13413     13415     13416     13417     13416     13418
     13419     13420     13419     13421     13422     13423     13422     13424
     13425     13426     13425     13427     13428     13429     13428     13430
     13431     13432     13431     13433     13434     13435     13434     13436
     13437     13438     13437     13439     13440     13441     13440     13442
     13443     13444     13443     13445     13446     13447     13446     13448
     13449     13450     13449     13451     13452     13453     13452     13454
     13455     13456     13455     13457     13458     13459     13458     13460
     13461     13462     13461     13463     13464     13465     13464     13466
     13467     13468     13467     13469     13470     13471     13470     13472
     13473     13474     13473     13475     13476     13477     13476     13478
     13479     13480     13479     13481     13482     13483     13482     13484
     13485     13486     13485     13487     13488     13489     13488     13490
     13491     13492     13491     13493     13494     13495     13494     13496
     13497     13498     13497     13499     13500     13501     13500     13502
     13503     13504     13503     13505     13506     13507     13506     13508
     13509     13510     13509     13511     13512     13513     13512     13514
     13515     13516     13515     13517     13518     13519     13518     13520
     13521     13522     13521     13523     13524     13525     13524     13526
     13527     13528     13527     13529     13530     13531     13530     13532
     13533     13534     13533     13535     13536     13537     13536     13538
     13539     13540     13539     13541     13542     13543     13542     13544
     13545     13546     13545     13547     13548     13549     13548     13550
     13551     13552     13551     13553     13554     13555     13554     13556
     13557     13558     13557     13559     13560     13561     13560     13562
     13563     13564     13563     13565     13566     13567     13566     13568
     13569     13570     13569     13571     13572     13573     13572     13574
     13575     13576     13575     13577     13578     13579     13578     13580
     13581     13582     13581     13583     13584     13585     13584     13586
     13587     13588     13587     13589     13590     13591     13590     13592
     13593     13594     13593     13595     13596     13597     13596     13598
     13599     13600     13599     13601     13602     13603     13602     13604
     13605     13606     13605     13607     13608     13609     13608     13610
     13611     13612     13611     13613     13614     13615     13614     13616
     13617     13618     13617     13619     13620     13621     13620     13622
     13623     13624     13623     13625     13626     13627     13626     13628
     13629     13630     13629     13631     13632     13633     13632     13634
     13635     13636     13635     13637     13638     13639     13638     13640
     13641     13642     13641     13643     13644     13645     13644     13646
     13647     13648     13647     13649     13650     13651     13650     13652
     13653     13654     13653     13655     13656     13657     13656     13658
     13659     13660     13659     13661     13662     13663     13662     13664
     13665     13666     13665     13667     13668     13669     13668     13670
     13671     13672     13671     13673     13674     13675     13674     13676
     13677     13678     13677     13679     13680     13681     13680     13682
     13683     13684     13683     13685     13686     13687     13686     13688
     13689     13690     13689     13691     13692     13693     13692     13694
     13695     13696     13695     13697     13698     13699     13698     13700
     13701     13702     13701     13703     13704     13705     13704     13706
     13707     13708     13707     13709     13710     13711     13710     13712
     13713     13714     13713     13715     13716     13717     13716     13718
     13719     13720     13719     13721     13722     13723     13722     13724
     13725     13726     13725     13727     13728     13729     13728     13730
     13731     13732     13731     13733     13734     13735     13734     13736
     13737     13738     13737     13739     13740     13741     13740     13742
     13743     13744     13743     13745     13746     13747     13746     13748
     13749     13750     13749     13751     13752     13753     13752     13754
     13755     13756     13755     13757     13758     13759     13758     13760
     13761     13762     13761     13763     13764     13765     13764     13766
     13767     13768     13767     13769     13770     13771     13770     13772
     13773     13774     13773     13775     13776     13777     13776     13778
     13779     13780     13779     13781     13782     13783     13782     13784
     13785     13786     13785     13787     13788     13789     13788     13790
     13791     13792     13791     13793     13794     13795     13794     13796
     13797     13798     13797     13799     13800     13801     13800     13802
     13803     13804     13803     13805     13806     13807     13806     13808
     13809     13810     13809     13811     13812     13813     13812     13814
     13815     13816     13815     13817     13818     13819     13818     13820
     13821     13822     13821     13823     13824     13825     13824     13826
     13827     13828     13827     13829     13830     13831     13830     13832
     13833     13834     13833     13835     13836     13837     13836     13838
     13839     13840     13839     13841     13842     13843     13842     13844
     13845     13846     13845     13847     13848     13849     13848     13850
     13851     13852     13851     13853     13854     13855     13854     13856
     13857     13858     13857     13859     13860     13861     13860     13862
     13863     13864     13863     13865     13866     13867     13866     13868
     13869     13870     13869     13871     13872     13873     13872     13874
     13875     13876     13875     13877     13878     13879     13878     13880
     13881     13882     13881     13883     13884     13885     13884     13886
     13887     13888     13887     13889     13890     13891     13890     13892
     13893     13894     13893     13895     13896     13897     13896     13898
     13899     13900     13899     13901     13902     13903     13902     13904
     13905     13906     13905     13907     13908     13909     13908     13910
     13911     13912     13911     13913     13914     13915     13914     13916
     13917     13918     13917     13919     13920     13921     13920     13922
     13923     13924     13923     13925     13926     13927     13926     13928
     13929     13930     13929     13931     13932     13933     13932     13934
     13935     13936     13935     13937     13938     13939     13938     13940
     13941     13942     13941     13943     13944     13945     13944     13946
     13947     13948     13947     13949     13950     13951     13950     13952
     13953     13954     13953     13955     13956     13957     13956     13958
     13959     13960     13959     13961     13962     13963     13962     13964
     13965     13966     13965     13967     13968     13969     13968     13970
     13971     13972     13971     13973     13974     13975     13974     13976
     13977     13978     13977     13979     13980     13981     13980     13982
     13983     13984     13983     13985     13986     13987     13986     13988
     13989     13990     13989     13991     13992     13993     13992     13994
     13995     13996     13995     13997     13998     13999     13998     14000
     14001     14002     14001     14003     14004     14005     14004     14006
     14007     14008     14007     14009     14010     14011     14010     14012
     14013     14014     14013     14015     14016     14017     14016     14018
     14019     14020     14019     14021     14022     14023     14022     14024
     14025     14026     14025     14027     14028     14029     14028     14030
     14031     14032     14031     14033     14034     14035     14034     14036
     14037     14038     14037     14039     14040     14041     14040     14042
     14043     14044     14043     14045     14046     14047     14046     14048
     14049     14050     14049     14051     14052     14053     14052     14054
     14055     14056     14055     14057     14058     14059     14058     14060
     14061     14062     14061     14063     14064     14065     14064     14066
     14067     14068     14067     14069     14070     14071     14070     14072
     14073     14074     14073     14075     14076     14077     14076     14078
     14079     14080     14079     14081     14082     14083     14082     14084
     14085     14086     14085     14087     14088     14089     14088     14090
     14091     14092     14091     14093     14094     14095     14094     14096
     14097     14098     14097     14099     14100     14101     14100     14102
     14103     14104     14103     14105     14106     14107     14106     14108
     14109     14110     14109     14111     14112     14113     14112     14114
     14115     14116     14115     14117     14118     14119     14118     14120
     14121     14122     14121     14123     14124     14125     14124     14126
     14127     14128     14127     14129     14130     14131     14130     14132
     14133     14134     14133     14135     14136     14137     14136     14138
     14139     14140     14139     14141     14142     14143     14142     14144
     14145     14146     14145     14147     14148     14149     14148     14150
     14151     14152     14151     14153     14154     14155     14154     14156
     14157     14158     14157     14159     14160     14161     14160     14162
     14163     14164     14163     14165     14166     14167     14166     14168
     14169     14170     14169     14171     14172     14173     14172     14174
     14175     14176     14175     14177     14178     14179     14178     14180
     14181     14182     14181     14183     14184     14185     14184     14186
     14187     14188     14187     14189     14190     14191     14190     14192
     14193     14194     14193     14195     14196     14197     14196     14198
     14199     14200     14199     14201     14202     14203     14202     14204
     14205     14206     14205     14207     14208     14209     14208     14210
     14211     14212     14211     14213     14214     14215     14214     14216
     14217     14218     14217     14219     14220     14221     14220     14222
     14223     14224     14223     14225     14226     14227     14226     14228
     14229     14230     14229     14231     14232     14233     14232     14234
     14235     14236     14235     14237     14238     14239     14238     14240
     14241     14242     14241     14243     14244     14245     14244     14246
     14247     14248     14247     14249     14250     14251     14250     14252
     14253     14254     14253     14255     14256     14257     14256     14258
     14259     14260     14259     14261     14262     14263     14262     14264
     14265     14266     14265     14267     14268     14269     14268     14270
     14271     14272     14271     14273     14274     14275     14274     14276
     14277     14278     14277     14279     14280     14281     14280     14282
     14283     14284     14283     14285     14286     14287     14286     14288
     14289     14290     14289     14291     14292     14293     14292     14294
     14295     14296     14295     14297     14298     14299     14298     14300
     14301     14302     14301     14303     14304     14305     14304     14306
     14307     14308     14307     14309     14310     14311     14310     14312
     14313     14314     14313     14315     14316     14317     14316     14318
     14319     14320     14319     14321     14322     14323     14322     14324
     14325     14326     14325     14327     14328     14329     14328     14330
     14331     14332     14331     14333     14334     14335     14334     14336
     14337     14338     14337     14339     14340     14341     14340     14342
     14343     14344     14343     14345     14346     14347     14346     14348
     14349     14350     14349     14351     14352     14353     14352     14354
     14355     14356     14355     14357     14358     14359     14358     14360
     14361     14362     14361     14363     14364     14365     14364     14366
     14367     14368     14367     14369     14370     14371     14370     14372
     14373     14374     14373     14375     14376     14377     14376     14378
     14379     14380     14379     14381     14382     14383     14382     14384
     14385     14386     14385     14387     14388     14389     14388     14390
     14391     14392     14391     14393     14394     14395     14394     14396
     14397     14398     14397     14399     14400     14401     14400     14402
     14403     14404     14403     14405     14406     14407     14406     14408
     14409     14410     14409     14411     14412     14413     14412     14414
     14415     14416     14415     14417     14418     14419     14418     14420
     14421     14422     14421     14423     14424     14425     14424     14426
     14427     14428     14427     14429     14430     14431     14430     14432
     14433     14434     14433     14435     14436     14437     14436     14438
     14439     14440     14439     14441     14442     14443     14442     14444
     14445     14446     14445     14447     14448     14449     14448     14450
     14451     14452     14451     14453     14454     14455     14454     14456
     14457     14458     14457     14459     14460     14461     14460     14462
     14463     14464     14463     14465     14466     14467     14466     14468
     14469     14470     14469     14471     14472     14473     14472     14474
     14475     14476     14475     14477     14478     14479     14478     14480
     14481     14482     14481     14483     14484     14485     14484     14486
     14487     14488     14487     14489     14490     14491     14490     14492
     14493     14494     14493     14495     14496     14497     14496     14498
     14499     14500     14499     14501     14502     14503     14502     14504
     14505     14506     14505     14507     14508     14509     14508     14510
     14511     14512     14511     14513     14514     14515     14514     14516
     14517     14518     14517     14519     14520     14521     14520     14522
     14523     14524     14523     14525     14526     14527     14526     14528
     14529     14530     14529     14531     14532     14533     14532     14534
     14535     14536     14535     14537     14538     14539     14538     14540
     14541     14542     14541     14543     14544     14545     14544     14546
     14547     14548     14547     14549     14550     14551     14550     14552
     14553     14554     14553     14555     14556     14557     14556     14558
     14559     14560     14559     14561     14562     14563     14562     14564
     14565     14566     14565     14567     14568     14569     14568     14570
     14571     14572     14571     14573     14574     14575     14574     14576
     14577     14578     14577     14579     14580     14581     14580     14582
     14583     14584     14583     14585     14586     14587     14586     14588
     14589     14590     14589     14591     14592     14593     14592     14594
     14595     14596     14595     14597     14598     14599     14598     14600
     14601     14602     14601     14603     14604     14605     14604     14606
     14607     14608     14607     14609     14610     14611     14610     14612
     14613     14614     14613     14615     14616     14617     14616     14618
     14619     14620     14619     14621     14622     14623     14622     14624
     14625     14626     14625     14627     14628     14629     14628     14630
     14631     14632     14631     14633     14634     14635     14634     14636
     14637     14638     14637     14639     14640     14641     14640     14642
     14643     14644     14643     14645     14646     14647     14646     14648
     14649     14650     14649     14651     14652     14653     14652     14654
     14655     14656     14655     14657     14658     14659     14658     14660
     14661     14662     14661     14663     14664     14665     14664     14666
     14667     14668     14667     14669     14670     14671     14670     14672
     14673     14674     14673     14675     14676     14677     14676     14678
     14679     14680     14679     14681     14682     14683     14682     14684
     14685     14686     14685     14687     14688     14689     14688     14690
     14691     14692     14691     14693     14694     14695     14694     14696
     14697     14698     14697     14699     14700     14701     14700     14702
     14703     14704     14703     14705     14706     14707     14706     14708
     14709     14710     14709     14711     14712     14713     14712     14714
     14715     14716     14715     14717     14718     14719     14718     14720
     14721     14722     14721     14723     14724     14725     14724     14726
     14727     14728     14727     14729     14730     14731     14730     14732
     14733     14734     14733     14735     14736     14737     14736     14738
     14739     14740     14739     14741     14742     14743     14742     14744
     14745     14746     14745     14747     14748     14749     14748     14750
     14751     14752     14751     14753     14754     14755     14754     14756
     14757     14758     14757     14759     14760     14761     14760     14762
     14763     14764     14763     14765     14766     14767     14766     14768
     14769     14770     14769     14771     14772     14773     14772     14774
     14775     14776     14775     14777     14778     14779     14778     14780
     14781     14782     14781     14783     14784     14785     14784     14786
     14787     14788     14787     14789     14790     14791     14790     14792
     14793     14794     14793     14795     14796     14797     14796     14798
     14799     14800     14799     14801     14802     14803     14802     14804
     14805     14806     14805     14807     14808     14809     14808     14810
     14811     14812     14811     14813     14814     14815     14814     14816
     14817     14818     14817     14819     14820     14821     14820     14822
     14823     14824     14823     14825     14826     14827     14826     14828
     14829     14830     14829     14831     14832     14833     14832     14834
     14835     14836     14835     14837     14838     14839     14838     14840
     14841     14842     14841     14843     14844     14845     14844     14846
     14847     14848     14847     14849     14850     14851     14850     14852
     14853     14854     14853     14855     14856     14857     14856     14858
     14859     14860     14859     14861     14862     14863     14862     14864
     14865     14866     14865     14867     14868     14869     14868     14870
     14871     14872     14871     14873     14874     14875     14874     14876
     14877     14878     14877     14879     14880     14881     14880     14882
     14883     14884     14883     14885     14886     14887     14886     14888
     14889     14890     14889     14891     14892     14893     14892     14894
     14895     14896     14895     14897     14898     14899     14898     14900
     14901     14902     14901     14903     14904     14905     14904     14906
     14907     14908     14907     14909     14910     14911     14910     14912
     14913     14914     14913     14915     14916     14917     14916     14918
     14919     14920     14919     14921     14922     14923     14922     14924
     14925     14926     14925     14927     14928     14929     14928     14930
     14931     14932     14931     14933     14934     14935     14934     14936
     14937     14938     14937     14939     14940     14941     14940     14942
     14943     14944     14943     14945     14946     14947     14946     14948
     14949     14950     14949     14951     14952     14953     14952     14954
     14955     14956     14955     14957     14958     14959     14958     14960
     14961     14962     14961     14963     14964     14965     14964     14966
     14967     14968     14967     14969     14970     14971     14970     14972
     14973     14974     14973     14975     14976     14977     14976     14978
     14979     14980     14979     14981     14982     14983     14982     14984
     14985     14986     14985     14987     14988     14989     14988     14990
     14991     14992     14991     14993     14994     14995     14994     14996
     14997     14998     14997     14999     15000     15001     15000     15002
     15003     15004     15003     15005     15006     15007     15006     15008
     15009     15010     15009     15011     15012     15013     15012     15014
     15015     15016     15015     15017     15018     15019     15018     15020
     15021     15022     15021     15023     15024     15025     15024     15026
     15027     15028     15027     15029     15030     15031     15030     15032
     15033     15034     15033     15035     15036     15037     15036     15038
     15039     15040     15039     15041     15042     15043     15042     15044
     15045     15046     15045     15047     15048     15049     15048     15050
     15051     15052     15051     15053     15054     15055     15054     15056
     15057     15058     15057     15059     15060     15061     15060     15062
     15063     15064     15063     15065     15066     15067     15066     15068
     15069     15070     15069     15071     15072     15073     15072     15074
     15075     15076     15075     15077     15078     15079     15078     15080
     15081     15082     15081     15083     15084     15085     15084     15086
     15087     15088     15087     15089     15090     15091     15090     15092
     15093     15094     15093     15095     15096     15097     15096     15098
     15099     15100     15099     15101     15102     15103     15102     15104
     15105     15106     15105     15107     15108     15109     15108     15110
     15111     15112     15111     15113     15114     15115     15114     15116
     15117     15118     15117     15119     15120     15121     15120     15122
     15123     15124     15123     15125     15126     15127     15126     15128
     15129     15130     15129     15131     15132     15133     15132     15134
     15135     15136     15135     15137     15138     15139     15138     15140
     15141     15142     15141     15143     15144     15145     15144     15146
     15147     15148     15147     15149     15150     15151     15150     15152
     15153     15154     15153     15155     15156     15157     15156     15158
     15159     15160     15159     15161     15162     15163     15162     15164
     15165     15166     15165     15167     15168     15169     15168     15170
     15171     15172     15171     15173     15174     15175     15174     15176
     15177     15178     15177     15179     15180     15181     15180     15182
     15183     15184     15183     15185     15186     15187     15186     15188
     15189     15190     15189     15191     15192     15193     15192     15194
     15195     15196     15195     15197     15198     15199     15198     15200
     15201     15202     15201     15203     15204     15205     15204     15206
     15207     15208     15207     15209     15210     15211     15210     15212
     15213     15214     15213     15215     15216     15217     15216     15218
     15219     15220     15219     15221     15222     15223     15222     15224
     15225     15226     15225     15227     15228     15229     15228     15230
     15231     15232     15231     15233     15234     15235     15234     15236
     15237     15238     15237     15239     15240     15241     15240     15242
     15243     15244     15243     15245     15246     15247     15246     15248
     15249     15250     15249     15251     15252     15253     15252     15254
     15255     15256     15255     15257     15258     15259     15258     15260
     15261     15262     15261     15263     15264     15265     15264     15266
     15267     15268     15267     15269     15270     15271     15270     15272
     15273     15274     15273     15275     15276     15277     15276     15278
     15279     15280     15279     15281     15282     15283     15282     15284
     15285     15286     15285     15287     15288     15289     15288     15290
     15291     15292     15291     15293     15294     15295     15294     15296
     15297     15298     15297     15299     15300     15301     15300     15302
     15303     15304     15303     15305     15306     15307     15306     15308
     15309     15310     15309     15311     15312     15313     15312     15314
     15315     15316     15315     15317     15318     15319     15318     15320
     15321     15322     15321     15323     15324     15325     15324     15326
     15327     15328     15327     15329     15330     15331     15330     15332
     15333     15334     15333     15335     15336     15337     15336     15338
     15339     15340     15339     15341     15342     15343     15342     15344
     15345     15346     15345     15347     15348     15349     15348     15350
     15351     15352     15351     15353     15354     15355     15354     15356
     15357     15358     15357     15359     15360     15361     15360     15362
     15363     15364     15363     15365     15366     15367     15366     15368
     15369     15370     15369     15371     15372     15373     15372     15374
     15375     15376     15375     15377     15378     15379     15378     15380
     15381     15382     15381     15383     15384     15385     15384     15386
     15387     15388     15387     15389     15390     15391     15390     15392
     15393     15394     15393     15395     15396     15397     15396     15398
     15399     15400     15399     15401     15402     15403     15402     15404
     15405     15406     15405     15407     15408     15409     15408     15410
     15411     15412     15411     15413     15414     15415     15414     15416
     15417     15418     15417     15419     15420     15421     15420     15422
     15423     15424     15423     15425     15426     15427     15426     15428
     15429     15430     15429     15431     15432     15433     15432     15434
     15435     15436     15435     15437     15438     15439     15438     15440
     15441     15442     15441     15443     15444     15445     15444     15446
     15447     15448     15447     15449     15450     15451     15450     15452
     15453     15454     15453     15455     15456     15457     15456     15458
     15459     15460     15459     15461     15462     15463     15462     15464
     15465     15466     15465     15467     15468     15469     15468     15470
     15471     15472     15471     15473     15474     15475     15474     15476
     15477     15478     15477     15479     15480     15481     15480     15482
     15483     15484     15483     15485     15486     15487     15486     15488
     15489     15490     15489     15491     15492     15493     15492     15494
     15495     15496     15495     15497     15498     15499     15498     15500
     15501     15502     15501     15503     15504     15505     15504     15506
     15507     15508     15507     15509     15510     15511     15510     15512
     15513     15514     15513     15515     15516     15517     15516     15518
     15519     15520     15519     15521     15522     15523     15522     15524
     15525     15526     15525     15527     15528     15529     15528     15530
     15531     15532     15531     15533     15534     15535     15534     15536
     15537     15538     15537     15539     15540     15541     15540     15542
     15543     15544     15543     15545     15546     15547     15546     15548
     15549     15550     15549     15551     15552     15553     15552     15554
     15555     15556     15555     15557     15558     15559     15558     15560
     15561     15562     15561     15563     15564     15565     15564     15566
     15567     15568     15567     15569     15570     15571     15570     15572
     15573     15574     15573     15575     15576     15577     15576     15578
     15579     15580     15579     15581     15582     15583     15582     15584
     15585     15586     15585     15587     15588     15589     15588     15590
     15591     15592     15591     15593     15594     15595     15594     15596
     15597     15598     15597     15599     15600     15601     15600     15602
     15603     15604     15603     15605     15606     15607     15606     15608
     15609     15610     15609     15611     15612     15613     15612     15614
     15615     15616     15615     15617     15618     15619     15618     15620
     15621     15622     15621     15623     15624     15625     15624     15626
     15627     15628     15627     15629     15630     15631     15630     15632
     15633     15634     15633     15635     15636     15637     15636     15638
     15639     15640     15639     15641     15642     15643     15642     15644
     15645     15646     15645     15647     15648     15649     15648     15650
     15651     15652     15651     15653     15654     15655     15654     15656
     15657     15658     15657     15659     15660     15661     15660     15662
     15663     15664     15663     15665     15666     15667     15666     15668
     15669     15670     15669     15671     15672     15673     15672     15674
     15675     15676     15675     15677     15678     15679     15678     15680
     15681     15682     15681     15683     15684     15685     15684     15686
     15687     15688     15687     15689     15690     15691     15690     15692
     15693     15694     15693     15695     15696     15697     15696     15698
     15699     15700     15699     15701     15702     15703     15702     15704
     15705     15706     15705     15707     15708     15709     15708     15710
     15711     15712     15711     15713     15714     15715     15714     15716
     15717     15718     15717     15719     15720     15721     15720     15722
     15723     15724     15723     15725     15726     15727     15726     15728
     15729     15730     15729     15731     15732     15733     15732     15734
     15735     15736     15735     15737     15738     15739     15738     15740
     15741     15742     15741     15743     15744     15745     15744     15746
     15747     15748     15747     15749     15750     15751     15750     15752
     15753     15754     15753     15755     15756     15757     15756     15758
     15759     15760     15759     15761     15762     15763     15762     15764
     15765     15766     15765     15767     15768     15769     15768     15770
     15771     15772     15771     15773     15774     15775     15774     15776
     15777     15778     15777     15779     15780     15781     15780     15782
     15783     15784     15783     15785     15786     15787     15786     15788
     15789     15790     15789     15791     15792     15793     15792     15794
     15795     15796     15795     15797     15798     15799     15798     15800
     15801     15802     15801     15803     15804     15805     15804     15806
     15807     15808     15807     15809     15810     15811     15810     15812
     15813     15814     15813     15815     15816     15817     15816     15818
     15819     15820     15819     15821     15822     15823     15822     15824
     15825     15826     15825     15827     15828     15829     15828     15830
     15831     15832     15831     15833     15834     15835     15834     15836
     15837     15838     15837     15839     15840     15841     15840     15842
     15843     15844     15843     15845     15846     15847     15846     15848
     15849     15850     15849     15851     15852     15853     15852     15854
     15855     15856     15855     15857     15858     15859     15858     15860
     15861     15862     15861     15863     15864     15865     15864     15866
     15867     15868     15867     15869     15870     15871     15870     15872
     15873     15874     15873     15875     15876     15877     15876     15878
     15879     15880     15879     15881     15882     15883     15882     15884
     15885     15886     15885     15887     15888     15889     15888     15890
     15891     15892     15891     15893     15894     15895     15894     15896
     15897     15898     15897     15899     15900     15901     15900     15902
     15903     15904     15903     15905     15906     15907     15906     15908
     15909     15910     15909     15911     15912     15913     15912     15914
     15915     15916     15915     15917     15918     15919     15918     15920
     15921     15922     15921     15923     15924     15925     15924     15926
     15927     15928     15927     15929     15930     15931     15930     15932
     15933     15934     15933     15935     15936     15937     15936     15938
     15939     15940     15939     15941     15942     15943     15942     15944
     15945     15946     15945     15947     15948     15949     15948     15950
     15951     15952     15951     15953     15954     15955     15954     15956
     15957     15958     15957     15959     15960     15961     15960     15962
     15963     15964     15963     15965     15966     15967     15966     15968
     15969     15970     15969     15971     15972     15973     15972     15974
     15975     15976     15975     15977     15978     15979     15978     15980
     15981     15982     15981     15983     15984     15985     15984     15986
     15987     15988     15987     15989     15990     15991     15990     15992
     15993     15994     15993     15995     15996     15997     15996     15998
     15999     16000     15999     16001     16002     16003     16002     16004
     16005     16006     16005     16007     16008     16009     16008     16010
     16011     16012     16011     16013     16014     16015     16014     16016
     16017     16018     16017     16019     16020     16021     16020     16022
     16023     16024     16023     16025     16026     16027     16026     16028
     16029     16030     16029     16031     16032     16033     16032     16034
     16035     16036     16035     16037     16038     16039     16038     16040
     16041     16042     16041     16043     16044     16045     16044     16046
     16047     16048     16047     16049     16050     16051     16050     16052
     16053     16054     16053     16055     16056     16057     16056     16058
     16059     16060     16059     16061     16062     16063     16062     16064
     16065     16066     16065     16067     16068     16069     16068     16070
     16071     16072     16071     16073     16074     16075     16074     16076
     16077     16078     16077     16079     16080     16081     16080     16082
     16083     16084     16083     16085     16086     16087     16086     16088
     16089     16090     16089     16091     16092     16093     16092     16094
     16095     16096     16095     16097     16098     16099     16098     16100
     16101     16102     16101     16103     16104     16105     16104     16106
     16107     16108     16107     16109     16110     16111     16110     16112
     16113     16114     16113     16115     16116     16117     16116     16118
     16119     16120     16119     16121     16122     16123     16122     16124
     16125     16126     16125     16127     16128     16129     16128     16130
     16131     16132     16131     16133     16134     16135     16134     16136
     16137     16138     16137     16139     16140     16141     16140     16142
     16143     16144     16143     16145     16146     16147     16146     16148
     16149     16150     16149     16151     16152     16153     16152     16154
     16155     16156     16155     16157     16158     16159     16158     16160
     16161     16162     16161     16163     16164     16165     16164     16166
     16167     16168     16167     16169     16170     16171     16170     16172
     16173     16174     16173     16175     16176     16177     16176     16178
     16179     16180     16179     16181     16182     16183     16182     16184
     16185     16186     16185     16187     16188     16189     16188     16190
     16191     16192     16191     16193     16194     16195     16194     16196
     16197     16198     16197     16199     16200     16201     16200     16202
     16203     16204     16203     16205     16206     16207     16206     16208
     16209     16210     16209     16211     16212     16213     16212     16214
     16215     16216     16215     16217     16218     16219     16218     16220
     16221     16222     16221     16223     16224     16225     16224     16226
     16227     16228     16227     16229     16230     16231     16230     16232
     16233     16234     16233     16235     16236     16237     16236     16238
     16239     16240     16239     16241     16242     16243     16242     16244
     16245     16246     16245     16247     16248     16249     16248     16250
     16251     16252     16251     16253     16254     16255     16254     16256
     16257     16258     16257     16259     16260     16261     16260     16262
     16263     16264     16263     16265     16266     16267     16266     16268
     16269     16270     16269     16271     16272     16273     16272     16274
     16275     16276     16275     16277     16278     16279     16278     16280
     16281     16282     16281     16283     16284     16285     16284     16286
     16287     16288     16287     16289     16290     16291     16290     16292
     16293     16294     16293     16295     16296     16297     16296     16298
     16299     16300     16299     16301     16302     16303     16302     16304
     16305     16306     16305     16307     16308     16309     16308     16310
     16311     16312     16311     16313     16314     16315     16314     16316
     16317     16318     16317     16319     16320     16321     16320     16322
     16323     16324     16323     16325     16326     16327     16326     16328
     16329     16330     16329     16331     16332     16333     16332     16334
     16335     16336     16335     16337     16338     16339     16338     16340
     16341     16342     16341     16343     16344     16345     16344     16346
     16347     16348     16347     16349     16350     16351     16350     16352
     16353     16354     16353     16355     16356     16357     16356     16358
     16359     16360     16359     16361     16362     16363     16362     16364
     16365     16366     16365     16367     16368     16369     16368     16370
     16371     16372     16371     16373     16374     16375     16374     16376
     16377     16378     16377     16379     16380     16381     16380     16382
     16383     16384     16383     16385     16386     16387     16386     16388
     16389     16390     16389     16391     16392     16393     16392     16394
     16395     16396     16395     16397     16398     16399     16398     16400
     16401     16402     16401     16403     16404     16405     16404     16406
     16407     16408     16407     16409     16410     16411     16410     16412
     16413     16414     16413     16415     16416     16417     16416     16418
     16419     16420     16419     16421     16422     16423     16422     16424
     16425     16426     16425     16427     16428     16429     16428     16430
     16431     16432     16431     16433     16434     16435     16434     16436
     16437     16438     16437     16439     16440     16441     16440     16442
     16443     16444     16443     16445     16446     16447     16446     16448
     16449     16450     16449     16451     16452     16453     16452     16454
     16455     16456     16455     16457     16458     16459     16458     16460
     16461     16462     16461     16463     16464     16465     16464     16466
     16467     16468     16467     16469     16470     16471     16470     16472
     16473     16474     16473     16475     16476     16477     16476     16478
     16479     16480     16479     16481     16482     16483     16482     16484
     16485     16486     16485     16487     16488     16489     16488     16490
     16491     16492     16491     16493     16494     16495     16494     16496
     16497     16498     16497     16499     16500     16501     16500     16502
     16503     16504     16503     16505     16506     16507     16506     16508
     16509     16510     16509     16511     16512     16513     16512     16514
     16515     16516     16515     16517     16518     16519     16518     16520
     16521     16522     16521     16523     16524     16525     16524     16526
     16527     16528     16527     16529     16530     16531     16530     16532
     16533     16534     16533     16535     16536     16537     16536     16538
     16539     16540     16539     16541     16542     16543     16542     16544
     16545     16546     16545     16547     16548     16549     16548     16550
     16551     16552     16551     16553     16554     16555     16554     16556
     16557     16558     16557     16559     16560     16561     16560     16562
     16563     16564     16563     16565     16566     16567     16566     16568
     16569     16570     16569     16571     16572     16573     16572     16574
     16575     16576     16575     16577     16578     16579     16578     16580
     16581     16582     16581     16583     16584     16585     16584     16586
     16587     16588     16587     16589     16590     16591     16590     16592
     16593     16594     16593     16595     16596     16597     16596     16598
     16599     16600     16599     16601     16602     16603     16602     16604
     16605     16606     16605     16607     16608     16609     16608     16610
     16611     16612     16611     16613     16614     16615     16614     16616
     16617     16618     16617     16619     16620     16621     16620     16622
     16623     16624     16623     16625     16626     16627     16626     16628
     16629     16630     16629     16631     16632     16633     16632     16634
     16635     16636     16635     16637     16638     16639     16638     16640
     16641     16642     16641     16643     16644     16645     16644     16646
     16647     16648     16647     16649     16650     16651     16650     16652
     16653     16654     16653     16655     16656     16657     16656     16658
     16659     16660     16659     16661     16662     16663     16662     16664
     16665     16666     16665     16667     16668     16669     16668     16670
     16671     16672     16671     16673     16674     16675     16674     16676
     16677     16678     16677     16679     16680     16681     16680     16682
     16683     16684     16683     16685     16686     16687     16686     16688
     16689     16690     16689     16691     16692     16693     16692     16694
     16695     16696     16695     16697     16698     16699     16698     16700
     16701     16702     16701     16703     16704     16705     16704     16706
     16707     16708     16707     16709     16710     16711     16710     16712
     16713     16714     16713     16715     16716     16717     16716     16718
     16719     16720     16719     16721     16722     16723     16722     16724
     16725     16726     16725     16727     16728     16729     16728     16730
     16731     16732     16731     16733     16734     16735     16734     16736
     16737     16738     16737     16739     16740     16741     16740     16742
     16743     16744     16743     16745     16746     16747     16746     16748
     16749     16750     16749     16751     16752     16753     16752     16754
     16755     16756     16755     16757     16758     16759     16758     16760
     16761     16762     16761     16763     16764     16765     16764     16766
     16767     16768     16767     16769     16770     16771     16770     16772
     16773     16774     16773     16775     16776     16777     16776     16778
     16779     16780     16779     16781     16782     16783     16782     16784
     16785     16786     16785     16787     16788     16789     16788     16790
     16791     16792     16791     16793     16794     16795     16794     16796
     16797     16798     16797     16799     16800     16801     16800     16802
     16803     16804     16803     16805     16806     16807     16806     16808
     16809     16810     16809     16811     16812     16813     16812     16814
     16815     16816     16815     16817     16818     16819     16818     16820
     16821     16822     16821     16823     16824     16825     16824     16826
     16827     16828     16827     16829     16830     16831     16830     16832
     16833     16834     16833     16835     16836     16837     16836     16838
     16839     16840     16839     16841     16842     16843     16842     16844
     16845     16846     16845     16847     16848     16849     16848     16850
     16851     16852     16851     16853     16854     16855     16854     16856
     16857     16858     16857     16859     16860     16861     16860     16862
     16863     16864     16863     16865     16866     16867     16866     16868
     16869     16870     16869     16871     16872     16873     16872     16874
     16875     16876     16875     16877     16878     16879     16878     16880
     16881     16882     16881     16883     16884     16885     16884     16886
     16887     16888     16887     16889     16890     16891     16890     16892
     16893     16894     16893     16895     16896     16897     16896     16898
     16899     16900     16899     16901     16902     16903     16902     16904
     16905     16906     16905     16907     16908     16909     16908     16910
     16911     16912     16911     16913     16914     16915     16914     16916
     16917     16918     16917     16919     16920     16921     16920     16922
     16923     16924     16923     16925     16926     16927     16926     16928
     16929     16930     16929     16931     16932     16933     16932     16934
     16935     16936     16935     16937     16938     16939     16938     16940
     16941     16942     16941     16943     16944     16945     16944     16946
     16947     16948     16947     16949     16950     16951     16950     16952
     16953     16954     16953     16955     16956     16957     16956     16958
     16959     16960     16959     16961     16962     16963     16962     16964
     16965     16966     16965     16967     16968     16969     16968     16970
     16971     16972     16971     16973     16974     16975     16974     16976
     16977     16978     16977     16979     16980     16981     16980     16982
     16983     16984     16983     16985     16986     16987     16986     16988
     16989     16990     16989     16991     16992     16993     16992     16994
     16995     16996     16995     16997     16998     16999     16998     17000
     17001     17002     17001     17003     17004     17005     17004     17006
     17007     17008     17007     17009     17010     17011     17010     17012
     17013     17014     17013     17015     17016     17017     17016     17018
     17019     17020     17019     17021     17022     17023     17022     17024
     17025     17026     17025     17027     17028     17029     17028     17030
     17031     17032     17031     17033     17034     17035     17034     17036
     17037     17038     17037     17039     17040     17041     17040     17042
     17043     17044     17043     17045     17046     17047     17046     17048
     17049     17050     17049     17051     17052     17053     17052     17054
     17055     17056     17055     17057     17058     17059     17058     17060
     17061     17062     17061     17063     17064     17065     17064     17066
     17067     17068     17067     17069     17070     17071     17070     17072
     17073     17074     17073     17075     17076     17077     17076     17078
     17079     17080     17079     17081     17082     17083     17082     17084
     17085     17086     17085     17087     17088     17089     17088     17090
     17091     17092     17091     17093     17094     17095     17094     17096
     17097     17098     17097     17099     17100     17101     17100     17102
     17103     17104     17103     17105     17106     17107     17106     17108
     17109     17110     17109     17111     17112     17113     17112     17114
     17115     17116     17115     17117     17118     17119     17118     17120
     17121     17122     17121     17123     17124     17125     17124     17126
     17127     17128     17127     17129     17130     17131     17130     17132
     17133     17134     17133     17135     17136     17137     17136     17138
     17139     17140     17139     17141     17142     17143     17142     17144
     17145     17146     17145     17147     17148     17149     17148     17150
     17151     17152     17151     17153     17154     17155     17154     17156
     17157     17158     17157     17159     17160     17161     17160     17162
     17163     17164     17163     17165     17166     17167     17166     17168
     17169     17170     17169     17171     17172     17173     17172     17174
     17175     17176     17175     17177     17178     17179     17178     17180
     17181     17182     17181     17183     17184     17185     17184     17186
     17187     17188     17187     17189     17190     17191     17190     17192
     17193     17194     17193     17195     17196     17197     17196     17198
     17199     17200     17199     17201     17202     17203     17202     17204
     17205     17206     17205     17207     17208     17209     17208     17210
     17211     17212     17211     17213     17214     17215     17214     17216
     17217     17218     17217     17219     17220     17221     17220     17222
     17223     17224     17223     17225     17226     17227     17226     17228
     17229     17230     17229     17231     17232     17233     17232     17234
     17235     17236     17235     17237     17238     17239     17238     17240
     17241     17242     17241     17243     17244     17245     17244     17246
     17247     17248     17247     17249     17250     17251     17250     17252
     17253     17254     17253     17255     17256     17257     17256     17258
     17259     17260     17259     17261     17262     17263     17262     17264
     17265     17266     17265     17267     17268     17269     17268     17270
     17271     17272     17271     17273     17274     17275     17274     17276
     17277     17278     17277     17279     17280     17281     17280     17282
     17283     17284     17283     17285     17286     17287     17286     17288
     17289     17290     17289     17291     17292     17293     17292     17294
     17295     17296     17295     17297     17298     17299     17298     17300
     17301     17302     17301     17303     17304     17305     17304     17306
     17307     17308     17307     17309     17310     17311     17310     17312
     17313     17314     17313     17315     17316     17317     17316     17318
     17319     17320     17319     17321     17322     17323     17322     17324
     17325     17326     17325     17327     17328     17329     17328     17330
     17331     17332     17331     17333     17334     17335     17334     17336
     17337     17338     17337     17339     17340     17341     17340     17342
     17343     17344     17343     17345     17346     17347     17346     17348
     17349     17350     17349     17351     17352     17353     17352     17354
     17355     17356     17355     17357     17358     17359     17358     17360
     17361     17362     17361     17363     17364     17365     17364     17366
     17367     17368     17367     17369     17370     17371     17370     17372
     17373     17374     17373     17375     17376     17377     17376     17378
     17379     17380     17379     17381     17382     17383     17382     17384
     17385     17386     17385     17387     17388     17389     17388     17390
     17391     17392     17391     17393     17394     17395     17394     17396
     17397     17398     17397     17399     17400     17401     17400     17402
     17403     17404     17403     17405     17406     17407     17406     17408
     17409     17410     17409     17411     17412     17413     17412     17414
     17415     17416     17415     17417     17418     17419     17418     17420
     17421     17422     17421     17423     17424     17425     17424     17426
     17427     17428     17427     17429     17430     17431     17430     17432
     17433     17434     17433     17435     17436     17437     17436     17438
     17439     17440     17439     17441     17442     17443     17442     17444
     17445     17446     17445     17447     17448     17449     17448     17450
     17451     17452     17451     17453     17454     17455     17454     17456
     17457     17458     17457     17459     17460     17461     17460     17462
     17463     17464     17463     17465     17466     17467     17466     17468
     17469     17470     17469     17471     17472     17473     17472     17474
     17475     17476     17475     17477     17478     17479     17478     17480
     17481     17482     17481     17483     17484     17485     17484     17486
     17487     17488     17487     17489     17490     17491     17490     17492
     17493     17494     17493     17495     17496     17497     17496     17498
     17499     17500     17499     17501     17502     17503     17502     17504
     17505     17506     17505     17507     17508     17509     17508     17510
     17511     17512     17511     17513     17514     17515     17514     17516
     17517     17518     17517     17519     17520     17521     17520     17522
     17523     17524     17523     17525     17526     17527     17526     17528
     17529     17530     17529     17531     17532     17533     17532     17534
     17535     17536     17535     17537     17538     17539     17538     17540
     17541     17542     17541     17543     17544     17545     17544     17546
     17547     17548     17547     17549     17550     17551     17550     17552
     17553     17554     17553     17555     17556     17557     17556     17558
     17559     17560     17559     17561     17562     17563     17562     17564
     17565     17566     17565     17567     17568     17569     17568     17570
     17571     17572     17571     17573     17574     17575     17574     17576
     17577     17578     17577     17579     17580     17581     17580     17582
     17583     17584     17583     17585     17586     17587     17586     17588
     17589     17590     17589     17591     17592     17593     17592     17594
     17595     17596     17595     17597     17598     17599     17598     17600
     17601     17602     17601     17603     17604     17605     17604     17606
     17607     17608     17607     17609     17610     17611     17610     17612
     17613     17614     17613     17615     17616     17617     17616     17618
     17619     17620     17619     17621     17622     17623     17622     17624
     17625     17626     17625     17627     17628     17629     17628     17630
     17631     17632     17631     17633     17634     17635     17634     17636
     17637     17638     17637     17639     17640     17641     17640     17642
     17643     17644     17643     17645     17646     17647     17646     17648
     17649     17650     17649     17651     17652     17653     17652     17654
     17655     17656     17655     17657     17658     17659     17658     17660
     17661     17662     17661     17663     17664     17665     17664     17666
     17667     17668     17667     17669     17670     17671     17670     17672
     17673     17674     17673     17675     17676     17677     17676     17678
     17679     17680     17679     17681     17682     17683     17682     17684
     17685     17686     17685     17687     17688     17689     17688     17690
     17691     17692     17691     17693     17694     17695     17694     17696
     17697     17698     17697     17699     17700     17701     17700     17702
     17703     17704     17703     17705     17706     17707     17706     17708
     17709     17710     17709     17711     17712     17713     17712     17714
     17715     17716     17715     17717     17718     17719     17718     17720
     17721     17722     17721     17723     17724     17725     17724     17726
     17727     17728     17727     17729     17730     17731     17730     17732
     17733     17734     17733     17735     17736     17737     17736     17738
     17739     17740     17739     17741     17742     17743     17742     17744
     17745     17746     17745     17747     17748     17749     17748     17750
     17751     17752     17751     17753     17754     17755     17754     17756
     17757     17758     17757     17759     17760     17761     17760     17762
     17763     17764     17763     17765     17766     17767     17766     17768
     17769     17770     17769     17771     17772     17773     17772     17774
     17775     17776     17775     17777     17778     17779     17778     17780
     17781     17782     17781     17783     17784     17785     17784     17786
     17787     17788     17787     17789     17790     17791     17790     17792
     17793     17794     17793     17795     17796     17797     17796     17798
     17799     17800     17799     17801     17802     17803     17802     17804
     17805     17806     17805     17807     17808     17809     17808     17810
     17811     17812     17811     17813     17814     17815     17814     17816
     17817     17818     17817     17819     17820     17821     17820     17822
     17823     17824     17823     17825     17826     17827     17826     17828
     17829     17830     17829     17831     17832     17833     17832     17834
     17835     17836     17835     17837     17838     17839     17838     17840
     17841     17842     17841     17843     17844     17845     17844     17846
     17847     17848     17847     17849     17850     17851     17850     17852
     17853     17854     17853     17855     17856     17857     17856     17858
     17859     17860     17859     17861     17862     17863     17862     17864
     17865     17866     17865     17867     17868     17869     17868     17870
     17871     17872     17871     17873     17874     17875     17874     17876
     17877     17878     17877     17879     17880     17881     17880     17882
     17883     17884     17883     17885     17886     17887     17886     17888
     17889     17890     17889     17891     17892     17893     17892     17894
     17895     17896     17895     17897     17898     17899     17898     17900
     17901     17902     17901     17903     17904     17905     17904     17906
     17907     17908     17907     17909     17910     17911     17910     17912
     17913     17914     17913     17915     17916     17917     17916     17918
     17919     17920     17919     17921     17922     17923     17922     17924
     17925     17926     17925     17927     17928     17929     17928     17930
     17931     17932     17931     17933     17934     17935     17934     17936
     17937     17938     17937     17939     17940     17941     17940     17942
     17943     17944     17943     17945     17946     17947     17946     17948
     17949     17950     17949     17951     17952     17953     17952     17954
     17955     17956     17955     17957     17958     17959     17958     17960
     17961     17962     17961     17963     17964     17965     17964     17966
     17967     17968     17967     17969     17970     17971     17970     17972
     17973     17974     17973     17975     17976     17977     17976     17978
     17979     17980     17979     17981     17982     17983     17982     17984
     17985     17986     17985     17987     17988     17989     17988     17990
     17991     17992     17991     17993     17994     17995     17994     17996
     17997     17998     17997     17999     18000     18001     18000     18002
     18003     18004     18003     18005     18006     18007     18006     18008
     18009     18010     18009     18011     18012     18013     18012     18014
     18015     18016     18015     18017     18018     18019     18018     18020
     18021     18022     18021     18023     18024     18025     18024     18026
     18027     18028     18027     18029     18030     18031     18030     18032
     18033     18034     18033     18035     18036     18037     18036     18038
     18039     18040     18039     18041     18042     18043     18042     18044
     18045     18046     18045     18047     18048     18049     18048     18050
     18051     18052     18051     18053     18054     18055     18054     18056
     18057     18058     18057     18059     18060     18061     18060     18062
     18063     18064     18063     18065     18066     18067     18066     18068
     18069     18070     18069     18071     18072     18073     18072     18074
     18075     18076     18075     18077     18078     18079     18078     18080
     18081     18082     18081     18083     18084     18085     18084     18086
     18087     18088     18087     18089     18090     18091     18090     18092
     18093     18094     18093     18095     18096     18097     18096     18098
     18099     18100     18099     18101     18102     18103     18102     18104
     18105     18106     18105     18107     18108     18109     18108     18110
     18111     18112     18111     18113     18114     18115     18114     18116
     18117     18118     18117     18119     18120     18121     18120     18122
     18123     18124     18123     18125     18126     18127     18126     18128
     18129     18130     18129     18131     18132     18133     18132     18134
     18135     18136     18135     18137     18138     18139     18138     18140
     18141     18142     18141     18143     18144     18145     18144     18146
     18147     18148     18147     18149     18150     18151     18150     18152
     18153     18154     18153     18155     18156     18157     18156     18158
     18159     18160     18159     18161     18162     18163     18162     18164
     18165     18166     18165     18167     18168     18169     18168     18170
     18171     18172     18171     18173     18174     18175     18174     18176
     18177     18178     18177     18179     18180     18181     18180     18182
     18183     18184     18183     18185     18186     18187     18186     18188
     18189     18190     18189     18191     18192     18193     18192     18194
     18195     18196     18195     18197     18198     18199     18198     18200
     18201     18202     18201     18203     18204     18205     18204     18206
     18207     18208     18207     18209     18210     18211     18210     18212
     18213     18214     18213     18215     18216     18217     18216     18218
     18219     18220     18219     18221     18222     18223     18222     18224
     18225     18226     18225     18227     18228     18229     18228     18230
     18231     18232     18231     18233     18234     18235     18234     18236
     18237     18238     18237     18239     18240     18241     18240     18242
     18243     18244     18243     18245     18246     18247     18246     18248
     18249     18250     18249     18251     18252     18253     18252     18254
     18255     18256     18255     18257     18258     18259     18258     18260
     18261     18262     18261     18263     18264     18265     18264     18266
     18267     18268     18267     18269     18270     18271     18270     18272
     18273     18274     18273     18275     18276     18277     18276     18278
     18279     18280     18279     18281     18282     18283     18282     18284
     18285     18286     18285     18287     18288     18289     18288     18290
     18291     18292     18291     18293     18294     18295     18294     18296
     18297     18298     18297     18299     18300     18301     18300     18302
     18303     18304     18303     18305     18306     18307     18306     18308
     18309     18310     18309     18311     18312     18313     18312     18314
     18315     18316     18315     18317     18318     18319     18318     18320
     18321     18322     18321     18323     18324     18325     18324     18326
     18327     18328     18327     18329     18330     18331     18330     18332
     18333     18334     18333     18335     18336     18337     18336     18338
     18339     18340     18339     18341     18342     18343     18342     18344
     18345     18346     18345     18347     18348     18349     18348     18350
     18351     18352     18351     18353     18354     18355     18354     18356
     18357     18358     18357     18359     18360     18361     18360     18362
     18363     18364     18363     18365     18366     18367     18366     18368
     18369     18370     18369     18371     18372     18373     18372     18374
     18375     18376     18375     18377     18378     18379     18378     18380
     18381     18382     18381     18383     18384     18385     18384     18386
     18387     18388     18387     18389     18390     18391     18390     18392
     18393     18394     18393     18395     18396     18397     18396     18398
     18399     18400     18399     18401     18402     18403     18402     18404
     18405     18406     18405     18407     18408     18409     18408     18410
     18411     18412     18411     18413     18414     18415     18414     18416
     18417     18418     18417     18419     18420     18421     18420     18422
     18423     18424     18423     18425     18426     18427     18426     18428
     18429     18430     18429     18431     18432     18433     18432     18434
     18435     18436     18435     18437     18438     18439     18438     18440
     18441     18442     18441     18443     18444     18445     18444     18446
     18447     18448     18447     18449     18450     18451     18450     18452
     18453     18454     18453     18455     18456     18457     18456     18458
     18459     18460     18459     18461     18462     18463     18462     18464
     18465     18466     18465     18467     18468     18469     18468     18470
     18471     18472     18471     18473     18474     18475     18474     18476
     18477     18478     18477     18479     18480     18481     18480     18482
     18483     18484     18483     18485     18486     18487     18486     18488
     18489     18490     18489     18491     18492     18493     18492     18494
     18495     18496     18495     18497     18498     18499     18498     18500
     18501     18502     18501     18503     18504     18505     18504     18506
     18507     18508     18507     18509     18510     18511     18510     18512
     18513     18514     18513     18515     18516     18517     18516     18518
     18519     18520     18519     18521     18522     18523     18522     18524
     18525     18526     18525     18527     18528     18529     18528     18530
     18531     18532     18531     18533     18534     18535     18534     18536
     18537     18538     18537     18539     18540     18541     18540     18542
     18543     18544     18543     18545     18546     18547     18546     18548
     18549     18550     18549     18551     18552     18553     18552     18554
     18555     18556     18555     18557     18558     18559     18558     18560
     18561     18562     18561     18563     18564     18565     18564     18566
     18567     18568     18567     18569     18570     18571     18570     18572
     18573     18574     18573     18575     18576     18577     18576     18578
     18579     18580     18579     18581     18582     18583     18582     18584
     18585     18586     18585     18587     18588     18589     18588     18590
     18591     18592     18591     18593     18594     18595     18594     18596
     18597     18598     18597     18599     18600     18601     18600     18602
     18603     18604     18603     18605     18606     18607     18606     18608
     18609     18610     18609     18611     18612     18613     18612     18614
     18615     18616     18615     18617     18618     18619     18618     18620
     18621     18622     18621     18623     18624     18625     18624     18626
     18627     18628     18627     18629     18630     18631     18630     18632
     18633     18634     18633     18635     18636     18637     18636     18638
     18639     18640     18639     18641     18642     18643     18642     18644
     18645     18646     18645     18647     18648     18649     18648     18650
     18651     18652     18651     18653     18654     18655     18654     18656
     18657     18658     18657     18659     18660     18661     18660     18662
     18663     18664     18663     18665     18666     18667     18666     18668
     18669     18670     18669     18671     18672     18673     18672     18674
     18675     18676     18675     18677     18678     18679     18678     18680
     18681     18682     18681     18683     18684     18685     18684     18686
     18687     18688     18687     18689     18690     18691     18690     18692
     18693     18694     18693     18695     18696     18697     18696     18698
     18699     18700     18699     18701     18702     18703     18702     18704
     18705     18706     18705     18707     18708     18709     18708     18710
     18711     18712     18711     18713     18714     18715     18714     18716
     18717     18718     18717     18719     18720     18721     18720     18722
     18723     18724     18723     18725     18726     18727     18726     18728
     18729     18730     18729     18731     18732     18733     18732     18734
     18735     18736     18735     18737     18738     18739     18738     18740
     18741     18742     18741     18743     18744     18745     18744     18746
     18747     18748     18747     18749     18750     18751     18750     18752
     18753     18754     18753     18755     18756     18757     18756     18758
     18759     18760     18759     18761     18762     18763     18762     18764
     18765     18766     18765     18767     18768     18769     18768     18770
     18771     18772     18771     18773     18774     18775     18774     18776
     18777     18778     18777     18779     18780     18781     18780     18782
     18783     18784     18783     18785     18786     18787     18786     18788
     18789     18790     18789     18791     18792     18793     18792     18794
     18795     18796     18795     18797     18798     18799     18798     18800
     18801     18802     18801     18803     18804     18805     18804     18806
     18807     18808     18807     18809     18810     18811     18810     18812
     18813     18814     18813     18815     18816     18817     18816     18818
     18819     18820     18819     18821     18822     18823     18822     18824
     18825     18826     18825     18827     18828     18829     18828     18830
     18831     18832     18831     18833     18834     18835     18834     18836
     18837     18838     18837     18839     18840     18841     18840     18842
     18843     18844     18843     18845     18846     18847     18846     18848
     18849     18850     18849     18851     18852     18853     18852     18854
     18855     18856     18855     18857     18858     18859     18858     18860
     18861     18862     18861     18863     18864     18865     18864     18866
     18867     18868     18867     18869     18870     18871     18870     18872
     18873     18874     18873     18875     18876     18877     18876     18878
     18879     18880     18879     18881     18882     18883     18882     18884
     18885     18886     18885     18887     18888     18889     18888     18890
     18891     18892     18891     18893     18894     18895     18894     18896
     18897     18898     18897     18899     18900     18901     18900     18902
     18903     18904     18903     18905     18906     18907     18906     18908
     18909     18910     18909     18911     18912     18913     18912     18914
     18915     18916     18915     18917     18918     18919     18918     18920
     18921     18922     18921     18923     18924     18925     18924     18926
     18927     18928     18927     18929     18930     18931     18930     18932
     18933     18934     18933     18935     18936     18937     18936     18938
     18939     18940     18939     18941     18942     18943     18942     18944
     18945     18946     18945     18947     18948     18949     18948     18950
     18951     18952     18951     18953     18954     18955     18954     18956
     18957     18958     18957     18959     18960     18961     18960     18962
     18963     18964     18963     18965     18966     18967     18966     18968
     18969     18970     18969     18971     18972     18973     18972     18974
     18975     18976     18975     18977     18978     18979     18978     18980
     18981     18982     18981     18983     18984     18985     18984     18986
     18987     18988     18987     18989     18990     18991     18990     18992
     18993     18994     18993     18995     18996     18997     18996     18998
     18999     19000     18999     19001     19002     19003     19002     19004
     19005     19006     19005     19007     19008     19009     19008     19010
     19011     19012     19011     19013     19014     19015     19014     19016
     19017     19018     19017     19019     19020     19021     19020     19022
     19023     19024     19023     19025     19026     19027     19026     19028
     19029     19030     19029     19031     19032     19033     19032     19034
     19035     19036     19035     19037     19038     19039     19038     19040
     19041     19042     19041     19043     19044     19045     19044     19046
     19047     19048     19047     19049     19050     19051     19050     19052
     19053     19054     19053     19055     19056     19057     19056     19058
     19059     19060     19059     19061     19062     19063     19062     19064
     19065     19066     19065     19067     19068     19069     19068     19070
     19071     19072     19071     19073     19074     19075     19074     19076
     19077     19078     19077     19079     19080     19081     19080     19082
     19083     19084     19083     19085     19086     19087     19086     19088
     19089     19090     19089     19091     19092     19093     19092     19094
     19095     19096     19095     19097     19098     19099     19098     19100
     19101     19102     19101     19103     19104     19105     19104     19106
     19107     19108     19107     19109     19110     19111     19110     19112
     19113     19114     19113     19115     19116     19117     19116     19118
     19119     19120     19119     19121     19122     19123     19122     19124
     19125     19126     19125     19127     19128     19129     19128     19130
     19131     19132     19131     19133     19134     19135     19134     19136
     19137     19138     19137     19139     19140     19141     19140     19142
     19143     19144     19143     19145     19146     19147     19146     19148
     19149     19150     19149     19151     19152     19153     19152     19154
     19155     19156     19155     19157     19158     19159     19158     19160
     19161     19162     19161     19163     19164     19165     19164     19166
     19167     19168     19167     19169     19170     19171     19170     19172
     19173     19174     19173     19175     19176     19177     19176     19178
     19179     19180     19179     19181     19182     19183     19182     19184
     19185     19186     19185     19187     19188     19189     19188     19190
     19191     19192     19191     19193     19194     19195     19194     19196
     19197     19198     19197     19199     19200     19201     19200     19202
     19203     19204     19203     19205     19206     19207     19206     19208
     19209     19210     19209     19211     19212     19213     19212     19214
     19215     19216     19215     19217     19218     19219     19218     19220
     19221     19222     19221     19223     19224     19225     19224     19226
     19227     19228     19227     19229     19230     19231     19230     19232
     19233     19234     19233     19235     19236     19237     19236     19238
     19239     19240     19239     19241     19242     19243     19242     19244
     19245     19246     19245     19247     19248     19249     19248     19250
     19251     19252     19251     19253     19254     19255     19254     19256
     19257     19258     19257     19259     19260     19261     19260     19262
     19263     19264     19263     19265     19266     19267     19266     19268
     19269     19270     19269     19271     19272     19273     19272     19274
     19275     19276     19275     19277     19278     19279     19278     19280
     19281     19282     19281     19283     19284     19285     19284     19286
     19287     19288     19287     19289     19290     19291     19290     19292
     19293     19294     19293     19295     19296     19297     19296     19298
     19299     19300     19299     19301     19302     19303     19302     19304
     19305     19306     19305     19307     19308     19309     19308     19310
     19311     19312     19311     19313     19314     19315     19314     19316
     19317     19318     19317     19319     19320     19321     19320     19322
     19323     19324     19323     19325     19326     19327     19326     19328
     19329     19330     19329     19331     19332     19333     19332     19334
     19335     19336     19335     19337     19338     19339     19338     19340
     19341     19342     19341     19343     19344     19345     19344     19346
     19347     19348     19347     19349     19350     19351     19350     19352
     19353     19354     19353     19355     19356     19357     19356     19358
     19359     19360     19359     19361     19362     19363     19362     19364
     19365     19366     19365     19367     19368     19369     19368     19370
     19371     19372     19371     19373     19374     19375     19374     19376
     19377     19378     19377     19379     19380     19381     19380     19382
     19383     19384     19383     19385     19386     19387     19386     19388
     19389     19390     19389     19391     19392     19393     19392     19394
     19395     19396     19395     19397     19398     19399     19398     19400
     19401     19402     19401     19403     19404     19405     19404     19406
     19407     19408     19407     19409     19410     19411     19410     19412
     19413     19414     19413     19415     19416     19417     19416     19418
     19419     19420     19419     19421     19422     19423     19422     19424
     19425     19426     19425     19427     19428     19429     19428     19430
     19431     19432     19431     19433     19434     19435     19434     19436
     19437     19438     19437     19439     19440     19441     19440     19442
     19443     19444     19443     19445     19446     19447     19446     19448
     19449     19450     19449     19451     19452     19453     19452     19454
     19455     19456     19455     19457     19458     19459     19458     19460
     19461     19462     19461     19463     19464     19465     19464     19466
     19467     19468     19467     19469     19470     19471     19470     19472
     19473     19474     19473     19475     19476     19477     19476     19478
     19479     19480     19479     19481     19482     19483     19482     19484
     19485     19486     19485     19487     19488     19489     19488     19490
     19491     19492     19491     19493     19494     19495     19494     19496
     19497     19498     19497     19499     19500     19501     19500     19502
     19503     19504     19503     19505     19506     19507     19506     19508
     19509     19510     19509     19511     19512     19513     19512     19514
     19515     19516     19515     19517     19518     19519     19518     19520
     19521     19522     19521     19523     19524     19525     19524     19526
     19527     19528     19527     19529     19530     19531     19530     19532
     19533     19534     19533     19535     19536     19537     19536     19538
     19539     19540     19539     19541     19542     19543     19542     19544
     19545     19546     19545     19547     19548     19549     19548     19550
     19551     19552     19551     19553     19554     19555     19554     19556
     19557     19558     19557     19559     19560     19561     19560     19562
     19563     19564     19563     19565     19566     19567     19566     19568
     19569     19570     19569     19571     19572     19573     19572     19574
     19575     19576     19575     19577     19578     19579     19578     19580
     19581     19582     19581     19583     19584     19585     19584     19586
     19587     19588     19587     19589     19590     19591     19590     19592
     19593     19594     19593     19595     19596     19597     19596     19598
     19599     19600     19599     19601     19602     19603     19602     19604
     19605     19606     19605     19607     19608     19609     19608     19610
     19611     19612     19611     19613     19614     19615     19614     19616
     19617     19618     19617     19619     19620     19621     19620     19622
     19623     19624     19623     19625     19626     19627     19626     19628
     19629     19630     19629     19631     19632     19633     19632     19634
     19635     19636     19635     19637     19638     19639     19638     19640
     19641     19642     19641     19643     19644     19645     19644     19646
     19647     19648     19647     19649     19650     19651     19650     19652
     19653     19654     19653     19655     19656     19657     19656     19658
     19659     19660     19659     19661     19662     19663     19662     19664
     19665     19666     19665     19667     19668     19669     19668     19670
     19671     19672     19671     19673     19674     19675     19674     19676
     19677     19678     19677     19679     19680     19681     19680     19682
     19683     19684     19683     19685     19686     19687     19686     19688
     19689     19690     19689     19691     19692     19693     19692     19694
     19695     19696     19695     19697     19698     19699     19698     19700
     19701     19702     19701     19703     19704     19705     19704     19706
     19707     19708     19707     19709     19710     19711     19710     19712
     19713     19714     19713     19715     19716     19717     19716     19718
     19719     19720     19719     19721     19722     19723     19722     19724
     19725     19726     19725     19727     19728     19729     19728     19730
     19731     19732     19731     19733     19734     19735     19734     19736
     19737     19738     19737     19739     19740     19741     19740     19742
     19743     19744     19743     19745     19746     19747     19746     19748
     19749     19750     19749     19751     19752     19753     19752     19754
     19755     19756     19755     19757     19758     19759     19758     19760
     19761     19762     19761     19763     19764     19765     19764     19766
     19767     19768     19767     19769     19770     19771     19770     19772
     19773     19774     19773     19775     19776     19777     19776     19778
     19779     19780     19779     19781     19782     19783     19782     19784
     19785     19786     19785     19787     19788     19789     19788     19790
     19791     19792     19791     19793     19794     19795     19794     19796
     19797     19798     19797     19799     19800     19801     19800     19802
     19803     19804     19803     19805     19806     19807     19806     19808
     19809     19810     19809     19811     19812     19813     19812     19814
     19815     19816     19815     19817     19818     19819     19818     19820
     19821     19822     19821     19823     19824     19825     19824     19826
     19827     19828     19827     19829     19830     19831     19830     19832
     19833     19834     19833     19835     19836     19837     19836     19838
     19839     19840     19839     19841     19842     19843     19842     19844
     19845     19846     19845     19847     19848     19849     19848     19850
     19851     19852     19851     19853     19854     19855     19854     19856
     19857     19858     19857     19859     19860     19861     19860     19862
     19863     19864     19863     19865     19866     19867     19866     19868
     19869     19870     19869     19871     19872     19873     19872     19874
     19875     19876     19875     19877     19878     19879     19878     19880
     19881     19882     19881     19883     19884     19885     19884     19886
     19887     19888     19887     19889     19890     19891     19890     19892
     19893     19894     19893     19895     19896     19897     19896     19898
     19899     19900     19899     19901     19902     19903     19902     19904
     19905     19906     19905     19907     19908     19909     19908     19910
     19911     19912     19911     19913     19914     19915     19914     19916
     19917     19918     19917     19919     19920     19921     19920     19922
     19923     19924     19923     19925     19926     19927     19926     19928
     19929     19930     19929     19931     19932     19933     19932     19934
     19935     19936     19935     19937     19938     19939     19938     19940
     19941     19942     19941     19943     19944     19945     19944     19946
     19947     19948     19947     19949     19950     19951     19950     19952
     19953     19954     19953     19955     19956     19957     19956     19958
     19959     19960     19959     19961     19962     19963     19962     19964
     19965     19966     19965     19967     19968     19969     19968     19970
     19971     19972     19971     19973     19974     19975     19974     19976
     19977     19978     19977     19979     19980     19981     19980     19982
     19983     19984     19983     19985     19986     19987     19986     19988
     19989     19990     19989     19991     19992     19993     19992     19994
     19995     19996     19995     19997     19998     19999     19998     20000
     20001     20002     20001     20003     20004     20005     20004     20006
     20007     20008     20007     20009     20010     20011     20010     20012
     20013     20014     20013     20015     20016     20017     20016     20018
     20019     20020     20019     20021     20022     20023     20022     20024
     20025     20026     20025     20027     20028     20029     20028     20030
     20031     20032     20031     20033     20034     20035     20034     20036
     20037     20038     20037     20039     20040     20041     20040     20042
     20043     20044     20043     20045     20046     20047     20046     20048
     20049     20050     20049     20051     20052     20053     20052     20054
     20055     20056     20055     20057     20058     20059     20058     20060
     20061     20062     20061     20063     20064     20065     20064     20066
     20067     20068     20067     20069     20070     20071     20070     20072
     20073     20074     20073     20075     20076     20077     20076     20078
     20079     20080     20079     20081     20082     20083     20082     20084
     20085     20086     20085     20087     20088     20089     20088     20090
     20091     20092     20091     20093     20094     20095     20094     20096
     20097     20098     20097     20099     20100     20101     20100     20102
     20103     20104     20103     20105     20106     20107     20106     20108
     20109     20110     20109     20111     20112     20113     20112     20114
     20115     20116     20115     20117     20118     20119     20118     20120
     20121     20122     20121     20123     20124     20125     20124     20126
     20127     20128     20127     20129     20130     20131     20130     20132
     20133     20134     20133     20135     20136     20137     20136     20138
     20139     20140     20139     20141     20142     20143     20142     20144
     20145     20146     20145     20147     20148     20149     20148     20150
     20151     20152     20151     20153     20154     20155     20154     20156
     20157     20158     20157     20159     20160     20161     20160     20162
     20163     20164     20163     20165     20166     20167     20166     20168
     20169     20170     20169     20171     20172     20173     20172     20174
     20175     20176     20175     20177     20178     20179     20178     20180
     20181     20182     20181     20183     20184     20185     20184     20186
     20187     20188     20187     20189     20190     20191     20190     20192
     20193     20194     20193     20195     20196     20197     20196     20198
     20199     20200     20199     20201     20202     20203     20202     20204
     20205     20206     20205     20207     20208     20209     20208     20210
     20211     20212     20211     20213     20214     20215     20214     20216
     20217     20218     20217     20219     20220     20221     20220     20222
     20223     20224     20223     20225     20226     20227     20226     20228
     20229     20230     20229     20231     20232     20233     20232     20234
     20235     20236     20235     20237     20238     20239     20238     20240
     20241     20242     20241     20243     20244     20245     20244     20246
     20247     20248     20247     20249     20250     20251     20250     20252
     20253     20254     20253     20255     20256     20257     20256     20258
     20259     20260     20259     20261     20262     20263     20262     20264
     20265     20266     20265     20267     20268     20269     20268     20270
     20271     20272     20271     20273     20274     20275     20274     20276
     20277     20278     20277     20279     20280     20281     20280     20282
     20283     20284     20283     20285     20286     20287     20286     20288
     20289     20290     20289     20291     20292     20293     20292     20294
     20295     20296     20295     20297     20298     20299     20298     20300
     20301     20302     20301     20303     20304     20305     20304     20306
     20307     20308     20307     20309     20310     20311     20310     20312
     20313     20314     20313     20315     20316     20317     20316     20318
     20319     20320     20319     20321     20322     20323     20322     20324
     20325     20326     20325     20327     20328     20329     20328     20330
     20331     20332     20331     20333     20334     20335     20334     20336
     20337     20338     20337     20339     20340     20341     20340     20342
     20343     20344     20343     20345     20346     20347     20346     20348
     20349     20350     20349     20351     20352     20353     20352     20354
     20355     20356     20355     20357     20358     20359     20358     20360
     20361     20362     20361     20363     20364     20365     20364     20366
     20367     20368     20367     20369     20370     20371     20370     20372
     20373     20374     20373     20375     20376     20377     20376     20378
     20379     20380     20379     20381     20382     20383     20382     20384
     20385     20386     20385     20387     20388     20389     20388     20390
     20391     20392     20391     20393     20394     20395     20394     20396
     20397     20398     20397     20399     20400     20401     20400     20402
     20403     20404     20403     20405     20406     20407     20406     20408
     20409     20410     20409     20411     20412     20413     20412     20414
     20415     20416     20415     20417     20418     20419     20418     20420
     20421     20422     20421     20423     20424     20425     20424     20426
     20427     20428     20427     20429     20430     20431     20430     20432
     20433     20434     20433     20435     20436     20437     20436     20438
     20439     20440     20439     20441     20442     20443     20442     20444
     20445     20446     20445     20447     20448     20449     20448     20450
     20451     20452     20451     20453     20454     20455     20454     20456
     20457     20458     20457     20459     20460     20461     20460     20462
     20463     20464     20463     20465     20466     20467     20466     20468
     20469     20470     20469     20471     20472     20473     20472     20474
     20475     20476     20475     20477     20478     20479     20478     20480
     20481     20482     20481     20483     20484     20485     20484     20486
     20487     20488     20487     20489     20490     20491     20490     20492
     20493     20494     20493     20495     20496     20497     20496     20498
     20499     20500     20499     20501     20502     20503     20502     20504
     20505     20506     20505     20507     20508     20509     20508     20510
     20511     20512     20511     20513     20514     20515     20514     20516
     20517     20518     20517     20519     20520     20521     20520     20522
     20523     20524     20523     20525     20526     20527     20526     20528
     20529     20530     20529     20531     20532     20533     20532     20534
     20535     20536     20535     20537     20538     20539     20538     20540
     20541     20542     20541     20543     20544     20545     20544     20546
     20547     20548     20547     20549     20550     20551     20550     20552
     20553     20554     20553     20555     20556     20557     20556     20558
     20559     20560     20559     20561     20562     20563     20562     20564
     20565     20566     20565     20567     20568     20569     20568     20570
     20571     20572     20571     20573     20574     20575     20574     20576
     20577     20578     20577     20579     20580     20581     20580     20582
     20583     20584     20583     20585     20586     20587     20586     20588
     20589     20590     20589     20591     20592     20593     20592     20594
     20595     20596     20595     20597     20598     20599     20598     20600
     20601     20602     20601     20603     20604     20605     20604     20606
     20607     20608     20607     20609     20610     20611     20610     20612
     20613     20614     20613     20615     20616     20617     20616     20618
     20619     20620     20619     20621     20622     20623     20622     20624
     20625     20626     20625     20627     20628     20629     20628     20630
     20631     20632     20631     20633     20634     20635     20634     20636
     20637     20638     20637     20639     20640     20641     20640     20642
     20643     20644     20643     20645     20646     20647     20646     20648
     20649     20650     20649     20651     20652     20653     20652     20654
     20655     20656     20655     20657     20658     20659     20658     20660
     20661     20662     20661     20663     20664     20665     20664     20666
     20667     20668     20667     20669     20670     20671     20670     20672
     20673     20674     20673     20675     20676     20677     20676     20678
     20679     20680     20679     20681     20682     20683     20682     20684
     20685     20686     20685     20687     20688     20689     20688     20690
     20691     20692     20691     20693     20694     20695     20694     20696
     20697     20698     20697     20699     20700     20701     20700     20702
     20703     20704     20703     20705     20706     20707     20706     20708
     20709     20710     20709     20711     20712     20713     20712     20714
     20715     20716     20715     20717     20718     20719     20718     20720
     20721     20722     20721     20723     20724     20725     20724     20726
     20727     20728     20727     20729     20730     20731     20730     20732
     20733     20734     20733     20735     20736     20737     20736     20738
     20739     20740     20739     20741     20742     20743     20742     20744
     20745     20746     20745     20747     20748     20749     20748     20750
     20751     20752     20751     20753     20754     20755     20754     20756
     20757     20758     20757     20759     20760     20761     20760     20762
     20763     20764     20763     20765     20766     20767     20766     20768
     20769     20770     20769     20771     20772     20773     20772     20774
     20775     20776     20775     20777     20778     20779     20778     20780
     20781     20782     20781     20783     20784     20785     20784     20786
     20787     20788     20787     20789     20790     20791     20790     20792
     20793     20794     20793     20795     20796     20797     20796     20798
     20799     20800     20799     20801     20802     20803     20802     20804
     20805     20806     20805     20807     20808     20809     20808     20810
     20811     20812     20811     20813     20814     20815     20814     20816
     20817     20818     20817     20819     20820     20821     20820     20822
     20823     20824     20823     20825     20826     20827     20826     20828
     20829     20830     20829     20831     20832     20833     20832     20834
     20835     20836     20835     20837     20838     20839     20838     20840
     20841     20842     20841     20843     20844     20845     20844     20846
     20847     20848     20847     20849     20850     20851     20850     20852
     20853     20854     20853     20855     20856     20857     20856     20858
     20859     20860     20859     20861     20862     20863     20862     20864
     20865     20866     20865     20867     20868     20869     20868     20870
     20871     20872     20871     20873     20874     20875     20874     20876
     20877     20878     20877     20879     20880     20881     20880     20882
     20883     20884     20883     20885     20886     20887     20886     20888
     20889     20890     20889     20891     20892     20893     20892     20894
     20895     20896     20895     20897     20898     20899     20898     20900
     20901     20902     20901     20903     20904     20905     20904     20906
     20907     20908     20907     20909     20910     20911     20910     20912
     20913     20914     20913     20915     20916     20917     20916     20918
     20919     20920     20919     20921     20922     20923     20922     20924
     20925     20926     20925     20927     20928     20929     20928     20930
     20931     20932     20931     20933     20934     20935     20934     20936
     20937     20938     20937     20939     20940     20941     20940     20942
     20943     20944     20943     20945     20946     20947     20946     20948
     20949     20950     20949     20951     20952     20953     20952     20954
     20955     20956     20955     20957     20958     20959     20958     20960
     20961     20962     20961     20963     20964     20965     20964     20966
     20967     20968     20967     20969     20970     20971     20970     20972
     20973     20974     20973     20975     20976     20977     20976     20978
     20979     20980     20979     20981     20982     20983     20982     20984
     20985     20986     20985     20987     20988     20989     20988     20990
     20991     20992     20991     20993     20994     20995     20994     20996
     20997     20998     20997     20999     21000     21001     21000     21002
     21003     21004     21003     21005     21006     21007     21006     21008
     21009     21010     21009     21011     21012     21013     21012     21014
     21015     21016     21015     21017     21018     21019     21018     21020
     21021     21022     21021     21023     21024     21025     21024     21026
     21027     21028     21027     21029     21030     21031     21030     21032
     21033     21034     21033     21035     21036     21037     21036     21038
     21039     21040     21039     21041     21042     21043     21042     21044
     21045     21046     21045     21047     21048     21049     21048     21050
     21051     21052     21051     21053     21054     21055     21054     21056
     21057     21058     21057     21059     21060     21061     21060     21062
     21063     21064     21063     21065     21066     21067     21066     21068
     21069     21070     21069     21071     21072     21073     21072     21074
     21075     21076     21075     21077     21078     21079     21078     21080
     21081     21082     21081     21083     21084     21085     21084     21086
     21087     21088     21087     21089     21090     21091     21090     21092
     21093     21094     21093     21095     21096     21097     21096     21098
     21099     21100     21099     21101     21102     21103     21102     21104
     21105     21106     21105     21107     21108     21109     21108     21110
     21111     21112     21111     21113     21114     21115     21114     21116
     21117     21118     21117     21119     21120     21121     21120     21122
     21123     21124     21123     21125     21126     21127     21126     21128
     21129     21130     21129     21131     21132     21133     21132     21134
     21135     21136     21135     21137     21138     21139     21138     21140
     21141     21142     21141     21143     21144     21145     21144     21146
     21147     21148     21147     21149     21150     21151     21150     21152
     21153     21154     21153     21155     21156     21157     21156     21158
     21159     21160     21159     21161     21162     21163     21162     21164
     21165     21166     21165     21167     21168     21169     21168     21170
     21171     21172     21171     21173     21174     21175     21174     21176
     21177     21178     21177     21179     21180     21181     21180     21182
     21183     21184     21183     21185     21186     21187     21186     21188
     21189     21190     21189     21191     21192     21193     21192     21194
     21195     21196     21195     21197     21198     21199     21198     21200
     21201     21202     21201     21203     21204     21205     21204     21206
     21207     21208     21207     21209     21210     21211     21210     21212
     21213     21214     21213     21215     21216     21217     21216     21218
     21219     21220     21219     21221     21222     21223     21222     21224
     21225     21226     21225     21227     21228     21229     21228     21230
     21231     21232     21231     21233     21234     21235     21234     21236
     21237     21238     21237     21239     21240     21241     21240     21242
     21243     21244     21243     21245     21246     21247     21246     21248
     21249     21250     21249     21251     21252     21253     21252     21254
     21255     21256     21255     21257     21258     21259     21258     21260
     21261     21262     21261     21263     21264     21265     21264     21266
     21267     21268     21267     21269     21270     21271     21270     21272
     21273     21274     21273     21275     21276     21277     21276     21278
     21279     21280     21279     21281     21282     21283     21282     21284
     21285     21286     21285     21287     21288     21289     21288     21290
     21291     21292     21291     21293     21294     21295     21294     21296
     21297     21298     21297     21299     21300     21301     21300     21302
     21303     21304     21303     21305     21306     21307     21306     21308
     21309     21310     21309     21311     21312     21313     21312     21314
     21315     21316     21315     21317     21318     21319     21318     21320
     21321     21322     21321     21323     21324     21325     21324     21326
     21327     21328     21327     21329     21330     21331     21330     21332
     21333     21334     21333     21335     21336     21337     21336     21338
     21339     21340     21339     21341     21342     21343     21342     21344
     21345     21346     21345     21347     21348     21349     21348     21350
     21351     21352     21351     21353     21354     21355     21354     21356
     21357     21358     21357     21359     21360     21361     21360     21362
     21363     21364     21363     21365     21366     21367     21366     21368
     21369     21370     21369     21371     21372     21373     21372     21374
     21375     21376     21375     21377     21378     21379     21378     21380
     21381     21382     21381     21383     21384     21385     21384     21386
     21387     21388     21387     21389     21390     21391     21390     21392
     21393     21394     21393     21395     21396     21397     21396     21398
     21399     21400     21399     21401     21402     21403     21402     21404
     21405     21406     21405     21407     21408     21409     21408     21410
     21411     21412     21411     21413     21414     21415     21414     21416
     21417     21418     21417     21419     21420     21421     21420     21422
     21423     21424     21423     21425     21426     21427     21426     21428
     21429     21430     21429     21431     21432     21433     21432     21434
     21435     21436     21435     21437     21438     21439     21438     21440
     21441     21442     21441     21443     21444     21445     21444     21446
     21447     21448     21447     21449     21450     21451     21450     21452
     21453     21454     21453     21455     21456     21457     21456     21458
     21459     21460     21459     21461     21462     21463     21462     21464
     21465     21466     21465     21467     21468     21469     21468     21470
     21471     21472     21471     21473     21474     21475     21474     21476
     21477     21478     21477     21479     21480     21481     21480     21482
     21483     21484     21483     21485     21486     21487     21486     21488
     21489     21490     21489     21491     21492     21493     21492     21494
     21495     21496     21495     21497     21498     21499     21498     21500
     21501     21502     21501     21503     21504     21505     21504     21506
     21507     21508     21507     21509     21510     21511     21510     21512
     21513     21514     21513     21515     21516     21517     21516     21518
     21519     21520     21519     21521     21522     21523     21522     21524
     21525     21526     21525     21527     21528     21529     21528     21530
     21531     21532     21531     21533     21534     21535     21534     21536
     21537     21538     21537     21539     21540     21541     21540     21542
     21543     21544     21543     21545     21546     21547     21546     21548
     21549     21550     21549     21551     21552     21553     21552     21554
     21555     21556     21555     21557     21558     21559     21558     21560
     21561     21562     21561     21563     21564     21565     21564     21566
     21567     21568     21567     21569     21570     21571     21570     21572
     21573     21574     21573     21575     21576     21577     21576     21578
     21579     21580     21579     21581     21582     21583     21582     21584
     21585     21586     21585     21587     21588     21589     21588     21590
     21591     21592     21591     21593     21594     21595     21594     21596
     21597     21598     21597     21599     21600     21601     21600     21602
     21603     21604     21603     21605     21606     21607     21606     21608
     21609     21610     21609     21611     21612     21613     21612     21614
     21615     21616     21615     21617     21618     21619     21618     21620
     21621     21622     21621     21623     21624     21625     21624     21626
     21627     21628     21627     21629     21630     21631     21630     21632
     21633     21634     21633     21635     21636     21637     21636     21638
     21639     21640     21639     21641     21642     21643     21642     21644
     21645     21646     21645     21647     21648     21649     21648     21650
     21651     21652     21651     21653     21654     21655     21654     21656
     21657     21658     21657     21659     21660     21661     21660     21662
     21663     21664     21663     21665     21666     21667     21666     21668
     21669     21670     21669     21671     21672     21673     21672     21674
     21675     21676     21675     21677     21678     21679     21678     21680
     21681     21682     21681     21683     21684     21685     21684     21686
     21687     21688     21687     21689     21690     21691     21690     21692
     21693     21694     21693     21695     21696     21697     21696     21698
     21699     21700     21699     21701     21702     21703     21702     21704
     21705     21706     21705     21707     21708     21709     21708     21710
     21711     21712     21711     21713     21714     21715     21714     21716
     21717     21718     21717     21719     21720     21721     21720     21722
     21723     21724     21723     21725     21726     21727     21726     21728
     21729     21730     21729     21731     21732     21733     21732     21734
     21735     21736     21735     21737     21738     21739     21738     21740
     21741     21742     21741     21743     21744     21745     21744     21746
     21747     21748     21747     21749     21750     21751     21750     21752
     21753     21754     21753     21755     21756     21757     21756     21758
     21759     21760     21759     21761     21762     21763     21762     21764
     21765     21766     21765     21767     21768     21769     21768     21770
     21771     21772     21771     21773     21774     21775     21774     21776
     21777     21778     21777     21779     21780     21781     21780     21782
     21783     21784     21783     21785     21786     21787     21786     21788
     21789     21790     21789     21791     21792     21793     21792     21794
     21795     21796     21795     21797     21798     21799     21798     21800
     21801     21802     21801     21803     21804     21805     21804     21806
     21807     21808     21807     21809     21810     21811     21810     21812
     21813     21814     21813     21815     21816     21817     21816     21818
     21819     21820     21819     21821     21822     21823     21822     21824
     21825     21826     21825     21827     21828     21829     21828     21830
     21831     21832     21831     21833     21834     21835     21834     21836
     21837     21838     21837     21839     21840     21841     21840     21842
     21843     21844     21843     21845     21846     21847     21846     21848
     21849     21850     21849     21851     21852     21853     21852     21854
     21855     21856     21855     21857     21858     21859     21858     21860
     21861     21862     21861     21863     21864     21865     21864     21866
     21867     21868     21867     21869     21870     21871     21870     21872
     21873     21874     21873     21875     21876     21877     21876     21878
     21879     21880     21879     21881     21882     21883     21882     21884
     21885     21886     21885     21887     21888     21889     21888     21890
     21891     21892     21891     21893     21894     21895     21894     21896
     21897     21898     21897     21899     21900     21901     21900     21902
     21903     21904     21903     21905     21906     21907     21906     21908
     21909     21910     21909     21911     21912     21913     21912     21914
     21915     21916     21915     21917     21918     21919     21918     21920
     21921     21922     21921     21923     21924     21925     21924     21926
     21927     21928     21927     21929     21930     21931     21930     21932
     21933     21934     21933     21935     21936     21937     21936     21938
     21939     21940     21939     21941     21942     21943     21942     21944
     21945     21946     21945     21947     21948     21949     21948     21950
     21951     21952     21951     21953     21954     21955     21954     21956
     21957     21958     21957     21959     21960     21961     21960     21962
     21963     21964     21963     21965     21966     21967     21966     21968
     21969     21970     21969     21971     21972     21973     21972     21974
     21975     21976     21975     21977     21978     21979     21978     21980
     21981     21982     21981     21983     21984     21985     21984     21986
     21987     21988     21987     21989     21990     21991     21990     21992
     21993     21994     21993     21995     21996     21997     21996     21998
     21999     22000     21999     22001     22002     22003     22002     22004
     22005     22006     22005     22007     22008     22009     22008     22010
     22011     22012     22011     22013     22014     22015     22014     22016
     22017     22018     22017     22019     22020     22021     22020     22022
     22023     22024     22023     22025     22026     22027     22026     22028
     22029     22030     22029     22031     22032     22033     22032     22034
     22035     22036     22035     22037     22038     22039     22038     22040
     22041     22042     22041     22043     22044     22045     22044     22046
     22047     22048     22047     22049     22050     22051     22050     22052
     22053     22054     22053     22055     22056     22057     22056     22058
     22059     22060     22059     22061     22062     22063     22062     22064
     22065     22066     22065     22067     22068     22069     22068     22070
     22071     22072     22071     22073     22074     22075     22074     22076
     22077     22078     22077     22079     22080     22081     22080     22082
     22083     22084     22083     22085     22086     22087     22086     22088
     22089     22090     22089     22091     22092     22093     22092     22094
     22095     22096     22095     22097     22098     22099     22098     22100
     22101     22102     22101     22103     22104     22105     22104     22106
     22107     22108     22107     22109     22110     22111     22110     22112
     22113     22114     22113     22115     22116     22117     22116     22118
     22119     22120     22119     22121     22122     22123     22122     22124
     22125     22126     22125     22127     22128     22129     22128     22130
     22131     22132     22131     22133     22134     22135     22134     22136
     22137     22138     22137     22139     22140     22141     22140     22142
     22143     22144     22143     22145     22146     22147     22146     22148
     22149     22150     22149     22151     22152     22153     22152     22154
     22155     22156     22155     22157     22158     22159     22158     22160
     22161     22162     22161     22163     22164     22165     22164     22166
     22167     22168     22167     22169     22170     22171     22170     22172
     22173     22174     22173     22175     22176     22177     22176     22178
     22179     22180     22179     22181     22182     22183     22182     22184
     22185     22186     22185     22187     22188     22189     22188     22190
     22191     22192     22191     22193     22194     22195     22194     22196
     22197     22198     22197     22199     22200     22201     22200     22202
     22203     22204     22203     22205     22206     22207     22206     22208
     22209     22210     22209     22211     22212     22213     22212     22214
     22215     22216     22215     22217     22218     22219     22218     22220
     22221     22222     22221     22223     22224     22225     22224     22226
     22227     22228     22227     22229     22230     22231     22230     22232
     22233     22234     22233     22235     22236     22237     22236     22238
     22239     22240     22239     22241     22242     22243     22242     22244
     22245     22246     22245     22247     22248     22249     22248     22250
     22251     22252     22251     22253     22254     22255     22254     22256
     22257     22258     22257     22259     22260     22261     22260     22262
     22263     22264     22263     22265     22266     22267     22266     22268
     22269     22270     22269     22271     22272     22273     22272     22274
     22275     22276     22275     22277     22278     22279     22278     22280
     22281     22282     22281     22283     22284     22285     22284     22286
     22287     22288     22287     22289     22290     22291     22290     22292
     22293     22294     22293     22295     22296     22297     22296     22298
     22299     22300     22299     22301     22302     22303     22302     22304
     22305     22306     22305     22307     22308     22309     22308     22310
     22311     22312     22311     22313     22314     22315     22314     22316
     22317     22318     22317     22319     22320     22321     22320     22322
     22323     22324     22323     22325     22326     22327     22326     22328
     22329     22330     22329     22331     22332     22333     22332     22334
     22335     22336     22335     22337     22338     22339     22338     22340
     22341     22342     22341     22343     22344     22345     22344     22346
     22347     22348     22347     22349     22350     22351     22350     22352
     22353     22354     22353     22355     22356     22357     22356     22358
     22359     22360     22359     22361     22362     22363     22362     22364
     22365     22366     22365     22367     22368     22369     22368     22370
     22371     22372     22371     22373     22374     22375     22374     22376
     22377     22378     22377     22379     22380     22381     22380     22382
     22383     22384     22383     22385     22386     22387     22386     22388
     22389     22390     22389     22391     22392     22393     22392     22394
     22395     22396     22395     22397     22398     22399     22398     22400
     22401     22402     22401     22403     22404     22405     22404     22406
     22407     22408     22407     22409     22410     22411     22410     22412
     22413     22414     22413     22415     22416     22417     22416     22418
     22419     22420     22419     22421     22422     22423     22422     22424
     22425     22426     22425     22427     22428     22429     22428     22430
     22431     22432     22431     22433     22434     22435     22434     22436
     22437     22438     22437     22439     22440     22441     22440     22442
     22443     22444     22443     22445     22446     22447     22446     22448
     22449     22450     22449     22451     22452     22453     22452     22454
     22455     22456     22455     22457     22458     22459     22458     22460
     22461     22462     22461     22463     22464     22465     22464     22466
     22467     22468     22467     22469     22470     22471     22470     22472
     22473     22474     22473     22475     22476     22477     22476     22478
     22479     22480     22479     22481     22482     22483     22482     22484
     22485     22486     22485     22487     22488     22489     22488     22490
     22491     22492     22491     22493     22494     22495     22494     22496
     22497     22498     22497     22499     22500     22501     22500     22502
     22503     22504     22503     22505     22506     22507     22506     22508
     22509     22510     22509     22511     22512     22513     22512     22514
     22515     22516     22515     22517     22518     22519     22518     22520
     22521     22522     22521     22523     22524     22525     22524     22526
     22527     22528     22527     22529     22530     22531     22530     22532
     22533     22534     22533     22535     22536     22537     22536     22538
     22539     22540     22539     22541     22542     22543     22542     22544
     22545     22546     22545     22547     22548     22549     22548     22550
     22551     22552     22551     22553     22554     22555     22554     22556
     22557     22558     22557     22559     22560     22561     22560     22562
     22563     22564     22563     22565     22566     22567     22566     22568
     22569     22570     22569     22571     22572     22573     22572     22574
     22575     22576     22575     22577     22578     22579     22578     22580
     22581     22582     22581     22583     22584     22585     22584     22586
     22587     22588     22587     22589     22590     22591     22590     22592
     22593     22594     22593     22595     22596     22597     22596     22598
     22599     22600     22599     22601     22602     22603     22602     22604
     22605     22606     22605     22607     22608     22609     22608     22610
     22611     22612     22611     22613     22614     22615     22614     22616
     22617     22618     22617     22619     22620     22621     22620     22622
     22623     22624     22623     22625     22626     22627     22626     22628
     22629     22630     22629     22631     22632     22633     22632     22634
     22635     22636     22635     22637     22638     22639     22638     22640
     22641     22642     22641     22643     22644     22645     22644     22646
     22647     22648     22647     22649     22650     22651     22650     22652
     22653     22654     22653     22655     22656     22657     22656     22658
     22659     22660     22659     22661     22662     22663     22662     22664
     22665     22666     22665     22667     22668     22669     22668     22670
     22671     22672     22671     22673     22674     22675     22674     22676
     22677     22678     22677     22679     22680     22681     22680     22682
     22683     22684     22683     22685     22686     22687     22686     22688
     22689     22690     22689     22691     22692     22693     22692     22694
     22695     22696     22695     22697     22698     22699     22698     22700
     22701     22702     22701     22703     22704     22705     22704     22706
     22707     22708     22707     22709     22710     22711     22710     22712
     22713     22714     22713     22715     22716     22717     22716     22718
     22719     22720     22719     22721     22722     22723     22722     22724
     22725     22726     22725     22727     22728     22729     22728     22730
     22731     22732     22731     22733     22734     22735     22734     22736
     22737     22738     22737     22739     22740     22741     22740     22742
     22743     22744     22743     22745     22746     22747     22746     22748
     22749     22750     22749     22751     22752     22753     22752     22754
     22755     22756     22755     22757     22758     22759     22758     22760
     22761     22762     22761     22763     22764     22765     22764     22766
     22767     22768     22767     22769     22770     22771     22770     22772
     22773     22774     22773     22775     22776     22777     22776     22778
     22779     22780     22779     22781     22782     22783     22782     22784
     22785     22786     22785     22787     22788     22789     22788     22790
     22791     22792     22791     22793     22794     22795     22794     22796
     22797     22798     22797     22799     22800     22801     22800     22802
     22803     22804     22803     22805     22806     22807     22806     22808
     22809     22810     22809     22811     22812     22813     22812     22814
     22815     22816     22815     22817     22818     22819     22818     22820
     22821     22822     22821     22823     22824     22825     22824     22826
     22827     22828     22827     22829     22830     22831     22830     22832
     22833     22834     22833     22835     22836     22837     22836     22838
     22839     22840     22839     22841     22842     22843     22842     22844
     22845     22846     22845     22847     22848     22849     22848     22850
     22851     22852     22851     22853     22854     22855     22854     22856
     22857     22858     22857     22859     22860     22861     22860     22862
     22863     22864     22863     22865     22866     22867     22866     22868
     22869     22870     22869     22871     22872     22873     22872     22874
     22875     22876     22875     22877     22878     22879     22878     22880
     22881     22882     22881     22883     22884     22885     22884     22886
     22887     22888     22887     22889     22890     22891     22890     22892
     22893     22894     22893     22895     22896     22897     22896     22898
     22899     22900     22899     22901     22902     22903     22902     22904
     22905     22906     22905     22907     22908     22909     22908     22910
     22911     22912     22911     22913     22914     22915     22914     22916
     22917     22918     22917     22919     22920     22921     22920     22922
     22923     22924     22923     22925     22926     22927     22926     22928
     22929     22930     22929     22931     22932     22933     22932     22934
     22935     22936     22935     22937     22938     22939     22938     22940
     22941     22942     22941     22943     22944     22945     22944     22946
     22947     22948     22947     22949     22950     22951     22950     22952
     22953     22954     22953     22955     22956     22957     22956     22958
     22959     22960     22959     22961     22962     22963     22962     22964
     22965     22966     22965     22967     22968     22969     22968     22970
     22971     22972     22971     22973     22974     22975     22974     22976
     22977     22978     22977     22979     22980     22981     22980     22982
     22983     22984     22983     22985     22986     22987     22986     22988
     22989     22990     22989     22991     22992     22993     22992     22994
     22995     22996     22995     22997     22998     22999     22998     23000
     23001     23002     23001     23003     23004     23005     23004     23006
     23007     23008     23007     23009     23010     23011     23010     23012
     23013     23014     23013     23015     23016     23017     23016     23018
     23019     23020     23019     23021     23022     23023     23022     23024
     23025     23026     23025     23027     23028     23029     23028     23030
     23031     23032     23031     23033     23034     23035     23034     23036
     23037     23038     23037     23039     23040     23041     23040     23042
     23043     23044     23043     23045     23046     23047     23046     23048
     23049     23050     23049     23051     23052     23053     23052     23054
     23055     23056     23055     23057     23058     23059     23058     23060
     23061     23062     23061     23063     23064     23065     23064     23066
     23067     23068     23067     23069     23070     23071     23070     23072
     23073     23074     23073     23075     23076     23077     23076     23078
     23079     23080     23079     23081     23082     23083     23082     23084
     23085     23086     23085     23087     23088     23089     23088     23090
     23091     23092     23091     23093     23094     23095     23094     23096
     23097     23098     23097     23099     23100     23101     23100     23102
     23103     23104     23103     23105     23106     23107     23106     23108
     23109     23110     23109     23111     23112     23113     23112     23114
     23115     23116     23115     23117     23118     23119     23118     23120
     23121     23122     23121     23123     23124     23125     23124     23126
     23127     23128     23127     23129     23130     23131     23130     23132
     23133     23134     23133     23135     23136     23137     23136     23138
     23139     23140     23139     23141     23142     23143     23142     23144
     23145     23146     23145     23147     23148     23149     23148     23150
     23151     23152     23151     23153     23154     23155     23154     23156
     23157     23158     23157     23159     23160     23161     23160     23162
     23163     23164     23163     23165     23166     23167     23166     23168
     23169     23170     23169     23171     23172     23173     23172     23174
     23175     23176     23175     23177     23178     23179     23178     23180
     23181     23182     23181     23183     23184     23185     23184     23186
     23187     23188     23187     23189     23190     23191     23190     23192
     23193     23194     23193     23195     23196     23197     23196     23198
     23199     23200     23199     23201     23202     23203     23202     23204
     23205     23206     23205     23207     23208     23209     23208     23210
     23211     23212     23211     23213     23214     23215     23214     23216
     23217     23218     23217     23219     23220     23221     23220     23222
     23223     23224     23223     23225     23226     23227     23226     23228
     23229     23230     23229     23231     23232     23233     23232     23234
     23235     23236     23235     23237     23238     23239     23238     23240
     23241     23242     23241     23243     23244     23245     23244     23246
     23247     23248     23247     23249     23250     23251     23250     23252
     23253     23254     23253     23255     23256     23257     23256     23258
     23259     23260     23259     23261     23262     23263     23262     23264
     23265     23266     23265     23267     23268     23269     23268     23270
     23271     23272     23271     23273     23274     23275     23274     23276
     23277     23278     23277     23279     23280     23281     23280     23282
     23283     23284     23283     23285     23286     23287     23286     23288
     23289     23290     23289     23291     23292     23293     23292     23294
     23295     23296     23295     23297     23298     23299     23298     23300
     23301     23302     23301     23303     23304     23305     23304     23306
     23307     23308     23307     23309     23310     23311     23310     23312
     23313     23314     23313     23315     23316     23317     23316     23318
     23319     23320     23319     23321     23322     23323     23322     23324
     23325     23326     23325     23327     23328     23329     23328     23330
     23331     23332     23331     23333     23334     23335     23334     23336
     23337     23338     23337     23339     23340     23341     23340     23342
     23343     23344     23343     23345     23346     23347     23346     23348
     23349     23350     23349     23351     23352     23353     23352     23354
     23355     23356     23355     23357     23358     23359     23358     23360
     23361     23362     23361     23363     23364     23365     23364     23366
     23367     23368     23367     23369     23370     23371     23370     23372
     23373     23374     23373     23375     23376     23377     23376     23378
     23379     23380     23379     23381     23382     23383     23382     23384
     23385     23386     23385     23387     23388     23389     23388     23390
     23391     23392     23391     23393     23394     23395     23394     23396
     23397     23398     23397     23399     23400     23401     23400     23402
     23403     23404     23403     23405     23406     23407     23406     23408
     23409     23410     23409     23411     23412     23413     23412     23414
     23415     23416     23415     23417     23418     23419     23418     23420
     23421     23422     23421     23423     23424     23425     23424     23426
     23427     23428     23427     23429     23430     23431     23430     23432
     23433     23434     23433     23435     23436     23437     23436     23438
     23439     23440     23439     23441     23442     23443     23442     23444
     23445     23446     23445     23447     23448     23449     23448     23450
     23451     23452     23451     23453     23454     23455     23454     23456
     23457     23458     23457     23459     23460     23461     23460     23462
     23463     23464     23463     23465     23466     23467     23466     23468
     23469     23470     23469     23471     23472     23473     23472     23474
     23475     23476     23475     23477     23478     23479     23478     23480
     23481     23482     23481     23483     23484     23485     23484     23486
     23487     23488     23487     23489     23490     23491     23490     23492
     23493     23494     23493     23495     23496     23497     23496     23498
     23499     23500     23499     23501     23502     23503     23502     23504
     23505     23506     23505     23507     23508     23509     23508     23510
     23511     23512     23511     23513     23514     23515     23514     23516
     23517     23518     23517     23519     23520     23521     23520     23522
     23523     23524     23523     23525     23526     23527     23526     23528
     23529     23530     23529     23531     23532     23533     23532     23534
     23535     23536     23535     23537     23538     23539     23538     23540
     23541     23542     23541     23543     23544     23545     23544     23546
     23547     23548     23547     23549     23550     23551     23550     23552
     23553     23554     23553     23555     23556     23557     23556     23558
     23559     23560     23559     23561     23562     23563     23562     23564
     23565     23566     23565     23567     23568     23569     23568     23570
     23571     23572     23571     23573     23574     23575     23574     23576
     23577     23578     23577     23579     23580     23581     23580     23582
     23583     23584     23583     23585     23586     23587     23586     23588
     23589     23590     23589     23591     23592     23593     23592     23594
     23595     23596     23595     23597     23598     23599     23598     23600
     23601     23602     23601     23603     23604     23605     23604     23606
     23607     23608     23607     23609     23610     23611     23610     23612
     23613     23614     23613     23615     23616     23617     23616     23618
     23619     23620     23619     23621     23622     23623     23622     23624
     23625     23626     23625     23627     23628     23629     23628     23630
     23631     23632     23631     23633     23634     23635     23634     23636
     23637     23638     23637     23639     23640     23641     23640     23642
     23643     23644     23643     23645     23646     23647     23646     23648
     23649     23650     23649     23651     23652     23653     23652     23654
     23655     23656     23655     23657     23658     23659     23658     23660
     23661     23662     23661     23663     23664     23665     23664     23666
     23667     23668     23667     23669     23670     23671     23670     23672
     23673     23674     23673     23675     23676     23677     23676     23678
     23679     23680     23679     23681     23682     23683     23682     23684
     23685     23686     23685     23687     23688     23689     23688     23690
     23691     23692     23691     23693     23694     23695     23694     23696
     23697     23698     23697     23699     23700     23701     23700     23702
     23703     23704     23703     23705     23706     23707     23706     23708
     23709     23710     23709     23711     23712     23713     23712     23714
     23715     23716     23715     23717     23718     23719     23718     23720
     23721     23722     23721     23723     23724     23725     23724     23726
     23727     23728     23727     23729     23730     23731     23730     23732
     23733     23734     23733     23735     23736     23737     23736     23738
     23739     23740     23739     23741     23742     23743     23742     23744
     23745     23746     23745     23747     23748     23749     23748     23750
     23751     23752     23751     23753     23754     23755     23754     23756
     23757     23758     23757     23759     23760     23761     23760     23762
     23763     23764     23763     23765     23766     23767     23766     23768
     23769     23770     23769     23771     23772     23773     23772     23774
     23775     23776     23775     23777     23778     23779     23778     23780
     23781     23782     23781     23783     23784     23785     23784     23786
     23787     23788     23787     23789     23790     23791     23790     23792
     23793     23794     23793     23795     23796     23797     23796     23798
     23799     23800     23799     23801     23802     23803     23802     23804
     23805     23806     23805     23807     23808     23809     23808     23810
     23811     23812     23811     23813     23814     23815     23814     23816
     23817     23818     23817     23819     23820     23821     23820     23822
     23823     23824     23823     23825     23826     23827     23826     23828
     23829     23830     23829     23831     23832     23833     23832     23834
     23835     23836     23835     23837     23838     23839     23838     23840
     23841     23842     23841     23843     23844     23845     23844     23846
     23847     23848     23847     23849     23850     23851     23850     23852
     23853     23854     23853     23855     23856     23857     23856     23858
     23859     23860     23859     23861     23862     23863     23862     23864
     23865     23866     23865     23867     23868     23869     23868     23870
     23871     23872     23871     23873     23874     23875     23874     23876
     23877     23878     23877     23879     23880     23881     23880     23882
     23883     23884     23883     23885     23886     23887     23886     23888
     23889     23890     23889     23891     23892     23893     23892     23894
     23895     23896     23895     23897     23898     23899     23898     23900
     23901     23902     23901     23903     23904     23905     23904     23906
     23907     23908     23907     23909     23910     23911     23910     23912
     23913     23914     23913     23915     23916     23917     23916     23918
     23919     23920     23919     23921     23922     23923     23922     23924
     23925     23926     23925     23927     23928     23929     23928     23930
     23931     23932     23931     23933     23934     23935     23934     23936
     23937     23938     23937     23939     23940     23941     23940     23942
     23943     23944     23943     23945     23946     23947     23946     23948
     23949     23950     23949     23951     23952     23953     23952     23954
     23955     23956     23955     23957     23958     23959     23958     23960
     23961     23962     23961     23963     23964     23965     23964     23966
     23967     23968     23967     23969     23970     23971     23970     23972
     23973     23974     23973     23975     23976     23977     23976     23978
     23979     23980     23979     23981     23982     23983     23982     23984
     23985     23986     23985     23987     23988     23989     23988     23990
     23991     23992     23991     23993     23994     23995     23994     23996
     23997     23998     23997     23999     24000     24001     24000     24002
     24003     24004     24003     24005     24006     24007     24006     24008
     24009     24010     24009     24011     24012     24013     24012     24014
     24015     24016     24015     24017     24018     24019     24018     24020
     24021     24022     24021     24023     24024     24025     24024     24026
     24027     24028     24027     24029     24030     24031     24030     24032
     24033     24034     24033     24035     24036     24037     24036     24038
     24039     24040     24039     24041     24042     24043     24042     24044
     24045     24046     24045     24047     24048     24049     24048     24050
     24051     24052     24051     24053     24054     24055     24054     24056
     24057     24058     24057     24059     24060     24061     24060     24062
     24063     24064     24063     24065     24066     24067     24066     24068
     24069     24070     24069     24071     24072     24073     24072     24074
     24075     24076     24075     24077     24078     24079     24078     24080
     24081     24082     24081     24083     24084     24085     24084     24086
     24087     24088     24087     24089     24090     24091     24090     24092
     24093     24094     24093     24095     24096     24097     24096     24098
     24099     24100     24099     24101     24102     24103     24102     24104
     24105     24106     24105     24107     24108     24109     24108     24110
     24111     24112     24111     24113     24114     24115     24114     24116
     24117     24118     24117     24119     24120     24121     24120     24122
     24123     24124     24123     24125     24126     24127     24126     24128
     24129     24130     24129     24131     24132     24133     24132     24134
     24135     24136     24135     24137     24138     24139     24138     24140
     24141     24142     24141     24143     24144     24145     24144     24146
     24147     24148     24147     24149     24150     24151     24150     24152
     24153     24154     24153     24155     24156     24157     24156     24158
     24159     24160     24159     24161     24162     24163     24162     24164
     24165     24166     24165     24167     24168     24169     24168     24170
     24171     24172     24171     24173     24174     24175     24174     24176
     24177     24178     24177     24179     24180     24181     24180     24182
     24183     24184     24183     24185     24186     24187     24186     24188
     24189     24190     24189     24191     24192     24193     24192     24194
     24195     24196     24195     24197     24198     24199     24198     24200
     24201     24202     24201     24203     24204     24205     24204     24206
     24207     24208     24207     24209     24210     24211     24210     24212
     24213     24214     24213     24215     24216     24217     24216     24218
     24219     24220     24219     24221     24222     24223     24222     24224
     24225     24226     24225     24227     24228     24229     24228     24230
     24231     24232     24231     24233     24234     24235     24234     24236
     24237     24238     24237     24239     24240     24241     24240     24242
     24243     24244     24243     24245     24246     24247     24246     24248
     24249     24250     24249     24251     24252     24253     24252     24254
     24255     24256     24255     24257     24258     24259     24258     24260
     24261     24262     24261     24263     24264     24265     24264     24266
     24267     24268     24267     24269     24270     24271     24270     24272
     24273     24274     24273     24275     24276     24277     24276     24278
     24279     24280     24279     24281     24282     24283     24282     24284
     24285     24286     24285     24287     24288     24289     24288     24290
     24291     24292     24291     24293     24294     24295     24294     24296
     24297     24298     24297     24299     24300     24301     24300     24302
     24303     24304     24303     24305     24306     24307     24306     24308
     24309     24310     24309     24311     24312     24313     24312     24314
     24315     24316     24315     24317     24318     24319     24318     24320
     24321     24322     24321     24323     24324     24325     24324     24326
     24327     24328     24327     24329     24330     24331     24330     24332
     24333     24334     24333     24335     24336     24337     24336     24338
     24339     24340     24339     24341     24342     24343     24342     24344
     24345     24346     24345     24347     24348     24349     24348     24350
     24351     24352     24351     24353     24354     24355     24354     24356
     24357     24358     24357     24359     24360     24361     24360     24362
     24363     24364     24363     24365     24366     24367     24366     24368
     24369     24370     24369     24371     24372     24373     24372     24374
     24375     24376     24375     24377     24378     24379     24378     24380
     24381     24382     24381     24383     24384     24385     24384     24386
     24387     24388     24387     24389     24390     24391     24390     24392
     24393     24394     24393     24395     24396     24397     24396     24398
     24399     24400     24399     24401     24402     24403     24402     24404
     24405     24406     24405     24407     24408     24409     24408     24410
     24411     24412     24411     24413     24414     24415     24414     24416
     24417     24418     24417     24419     24420     24421     24420     24422
     24423     24424     24423     24425     24426     24427     24426     24428
     24429     24430     24429     24431     24432     24433     24432     24434
     24435     24436     24435     24437     24438     24439     24438     24440
     24441     24442     24441     24443     24444     24445     24444     24446
     24447     24448     24447     24449     24450     24451     24450     24452
     24453     24454     24453     24455     24456     24457     24456     24458
     24459     24460     24459     24461     24462     24463     24462     24464
     24465     24466     24465     24467     24468     24469     24468     24470
     24471     24472     24471     24473     24474     24475     24474     24476
     24477     24478     24477     24479     24480     24481     24480     24482
     24483     24484     24483     24485     24486     24487     24486     24488
     24489     24490     24489     24491     24492     24493     24492     24494
     24495     24496     24495     24497     24498     24499     24498     24500
     24501     24502     24501     24503     24504     24505     24504     24506
     24507     24508     24507     24509     24510     24511     24510     24512
     24513     24514     24513     24515     24516     24517     24516     24518
     24519     24520     24519     24521     24522     24523     24522     24524
     24525     24526     24525     24527     24528     24529     24528     24530
     24531     24532     24531     24533     24534     24535     24534     24536
     24537     24538     24537     24539     24540     24541     24540     24542
     24543     24544     24543     24545     24546     24547     24546     24548
     24549     24550     24549     24551     24552     24553     24552     24554
     24555     24556     24555     24557     24558     24559     24558     24560
     24561     24562     24561     24563     24564     24565     24564     24566
     24567     24568     24567     24569     24570     24571     24570     24572
     24573     24574     24573     24575     24576     24577     24576     24578
     24579     24580     24579     24581     24582     24583     24582     24584
     24585     24586     24585     24587     24588     24589     24588     24590
     24591     24592     24591     24593     24594     24595     24594     24596
     24597     24598     24597     24599     24600     24601     24600     24602
     24603     24604     24603     24605     24606     24607     24606     24608
     24609     24610     24609     24611     24612     24613     24612     24614
     24615     24616     24615     24617     24618     24619     24618     24620
     24621     24622     24621     24623     24624     24625     24624     24626
     24627     24628     24627     24629     24630     24631     24630     24632
     24633     24634     24633     24635     24636     24637     24636     24638
     24639     24640     24639     24641     24642     24643     24642     24644
     24645     24646     24645     24647     24648     24649     24648     24650
     24651     24652     24651     24653     24654     24655     24654     24656
     24657     24658     24657     24659     24660     24661     24660     24662
     24663     24664     24663     24665     24666     24667     24666     24668
     24669     24670     24669     24671     24672     24673     24672     24674
     24675     24676     24675     24677     24678     24679     24678     24680
     24681     24682     24681     24683     24684     24685     24684     24686
     24687     24688     24687     24689     24690     24691     24690     24692
     24693     24694     24693     24695     24696     24697     24696     24698
     24699     24700     24699     24701     24702     24703     24702     24704
     24705     24706     24705     24707     24708     24709     24708     24710
     24711     24712     24711     24713     24714     24715     24714     24716
     24717     24718     24717     24719     24720     24721     24720     24722
     24723     24724     24723     24725     24726     24727     24726     24728
     24729     24730     24729     24731     24732     24733     24732     24734
     24735     24736     24735     24737     24738     24739     24738     24740
     24741     24742     24741     24743     24744     24745     24744     24746
     24747     24748     24747     24749     24750     24751     24750     24752
     24753     24754     24753     24755     24756     24757     24756     24758
     24759     24760     24759     24761     24762     24763     24762     24764
     24765     24766     24765     24767     24768     24769     24768     24770
     24771     24772     24771     24773     24774     24775     24774     24776
     24777     24778     24777     24779     24780     24781     24780     24782
     24783     24784     24783     24785     24786     24787     24786     24788
     24789     24790     24789     24791     24792     24793     24792     24794
     24795     24796     24795     24797     24798     24799     24798     24800
     24801     24802     24801     24803     24804     24805     24804     24806
     24807     24808     24807     24809     24810     24811     24810     24812
     24813     24814     24813     24815     24816     24817     24816     24818
     24819     24820     24819     24821     24822     24823     24822     24824
     24825     24826     24825     24827     24828     24829     24828     24830
     24831     24832     24831     24833     24834     24835     24834     24836
     24837     24838     24837     24839     24840     24841     24840     24842
     24843     24844     24843     24845     24846     24847     24846     24848
     24849     24850     24849     24851     24852     24853     24852     24854
     24855     24856     24855     24857     24858     24859     24858     24860
     24861     24862     24861     24863     24864     24865     24864     24866
     24867     24868     24867     24869     24870     24871     24870     24872
     24873     24874     24873     24875     24876     24877     24876     24878
     24879     24880     24879     24881     24882     24883     24882     24884
     24885     24886     24885     24887     24888     24889     24888     24890
     24891     24892     24891     24893     24894     24895     24894     24896
     24897     24898     24897     24899     24900     24901     24900     24902
     24903     24904     24903     24905     24906     24907     24906     24908
     24909     24910     24909     24911     24912     24913     24912     24914
     24915     24916     24915     24917     24918     24919     24918     24920
     24921     24922     24921     24923     24924     24925     24924     24926
     24927     24928     24927     24929     24930     24931     24930     24932
     24933     24934     24933     24935     24936     24937     24936     24938
     24939     24940     24939     24941     24942     24943     24942     24944
     24945     24946     24945     24947     24948     24949     24948     24950
     24951     24952     24951     24953     24954     24955     24954     24956
     24957     24958     24957     24959     24960     24961     24960     24962
     24963     24964     24963     24965     24966     24967     24966     24968
     24969     24970     24969     24971     24972     24973     24972     24974
     24975     24976     24975     24977     24978     24979     24978     24980
     24981     24982     24981     24983     24984     24985     24984     24986
     24987     24988     24987     24989     24990     24991     24990     24992
     24993     24994     24993     24995     24996     24997     24996     24998
     24999     25000     24999     25001     25002     25003     25002     25004
     25005     25006     25005     25007     25008     25009     25008     25010
     25011     25012     25011     25013     25014     25015     25014     25016
     25017     25018     25017     25019     25020     25021     25020     25022
     25023     25024     25023     25025     25026     25027     25026     25028
     25029     25030     25029     25031     25032     25033     25032     25034
     25035     25036     25035     25037     25038     25039     25038     25040
     25041     25042     25041     25043     25044     25045     25044     25046
     25047     25048     25047     25049     25050     25051     25050     25052
     25053     25054     25053     25055     25056     25057     25056     25058
     25059     25060     25059     25061     25062     25063     25062     25064
     25065     25066     25065     25067     25068     25069     25068     25070
     25071     25072     25071     25073     25074     25075     25074     25076
     25077     25078     25077     25079     25080     25081     25080     25082
     25083     25084     25083     25085     25086     25087     25086     25088
     25089     25090     25089     25091     25092     25093     25092     25094
     25095     25096     25095     25097     25098     25099     25098     25100
     25101     25102     25101     25103     25104     25105     25104     25106
     25107     25108     25107     25109     25110     25111     25110     25112
     25113     25114     25113     25115     25116     25117     25116     25118
     25119     25120     25119     25121     25122     25123     25122     25124
     25125     25126     25125     25127     25128     25129     25128     25130
     25131     25132     25131     25133     25134     25135     25134     25136
     25137     25138     25137     25139     25140     25141     25140     25142
     25143     25144     25143     25145     25146     25147     25146     25148
     25149     25150     25149     25151     25152     25153     25152     25154
     25155     25156     25155     25157     25158     25159     25158     25160
     25161     25162     25161     25163     25164     25165     25164     25166
     25167     25168     25167     25169     25170     25171     25170     25172
     25173     25174     25173     25175     25176     25177     25176     25178
     25179     25180     25179     25181     25182     25183     25182     25184
     25185     25186     25185     25187     25188     25189     25188     25190
     25191     25192     25191     25193     25194     25195     25194     25196
     25197     25198     25197     25199     25200     25201     25200     25202
     25203     25204     25203     25205     25206     25207     25206     25208
     25209     25210     25209     25211     25212     25213     25212     25214
     25215     25216     25215     25217     25218     25219     25218     25220
     25221     25222     25221     25223     25224     25225     25224     25226
     25227     25228     25227     25229     25230     25231     25230     25232
     25233     25234     25233     25235     25236     25237     25236     25238
     25239     25240     25239     25241     25242     25243     25242     25244
     25245     25246     25245     25247     25248     25249     25248     25250
     25251     25252     25251     25253     25254     25255     25254     25256
     25257     25258     25257     25259     25260     25261     25260     25262
     25263     25264     25263     25265     25266     25267     25266     25268
     25269     25270     25269     25271     25272     25273     25272     25274
     25275     25276     25275     25277     25278     25279     25278     25280
     25281     25282     25281     25283     25284     25285     25284     25286
     25287     25288     25287     25289     25290     25291     25290     25292
     25293     25294     25293     25295     25296     25297     25296     25298
     25299     25300     25299     25301     25302     25303     25302     25304
     25305     25306     25305     25307     25308     25309     25308     25310
     25311     25312     25311     25313     25314     25315     25314     25316
     25317     25318     25317     25319     25320     25321     25320     25322
     25323     25324     25323     25325     25326     25327     25326     25328
     25329     25330     25329     25331     25332     25333     25332     25334
     25335     25336     25335     25337     25338     25339     25338     25340
     25341     25342     25341     25343     25344     25345     25344     25346
     25347     25348     25347     25349     25350     25351     25350     25352
     25353     25354     25353     25355     25356     25357     25356     25358
     25359     25360     25359     25361     25362     25363     25362     25364
     25365     25366     25365     25367     25368     25369     25368     25370
     25371     25372     25371     25373     25374     25375     25374     25376
     25377     25378     25377     25379     25380     25381     25380     25382
     25383     25384     25383     25385     25386     25387     25386     25388
     25389     25390     25389     25391     25392     25393     25392     25394
     25395     25396     25395     25397     25398     25399     25398     25400
     25401     25402     25401     25403     25404     25405     25404     25406
     25407     25408     25407     25409     25410     25411     25410     25412
     25413     25414     25413     25415     25416     25417     25416     25418
     25419     25420     25419     25421     25422     25423     25422     25424
     25425     25426     25425     25427     25428     25429     25428     25430
     25431     25432     25431     25433     25434     25435     25434     25436
     25437     25438     25437     25439     25440     25441     25440     25442
     25443     25444     25443     25445     25446     25447     25446     25448
     25449     25450     25449     25451     25452     25453     25452     25454
     25455     25456     25455     25457     25458     25459     25458     25460
     25461     25462     25461     25463     25464     25465     25464     25466
     25467     25468     25467     25469     25470     25471     25470     25472
     25473     25474     25473     25475     25476     25477     25476     25478
     25479     25480     25479     25481     25482     25483     25482     25484
     25485     25486     25485     25487     25488     25489     25488     25490
     25491     25492     25491     25493     25494     25495     25494     25496
     25497     25498     25497     25499     25500     25501     25500     25502
     25503     25504     25503     25505     25506     25507     25506     25508
     25509     25510     25509     25511     25512     25513     25512     25514
     25515     25516     25515     25517     25518     25519     25518     25520
     25521     25522     25521     25523     25524     25525     25524     25526
     25527     25528     25527     25529     25530     25531     25530     25532
     25533     25534     25533     25535     25536     25537     25536     25538
     25539     25540     25539     25541     25542     25543     25542     25544
     25545     25546     25545     25547     25548     25549     25548     25550
     25551     25552     25551     25553     25554     25555     25554     25556
     25557     25558     25557     25559     25560     25561     25560     25562
     25563     25564     25563     25565     25566     25567     25566     25568
     25569     25570     25569     25571     25572     25573     25572     25574
     25575     25576     25575     25577     25578     25579     25578     25580
     25581     25582     25581     25583     25584     25585     25584     25586
     25587     25588     25587     25589     25590     25591     25590     25592
     25593     25594     25593     25595     25596     25597     25596     25598
     25599     25600     25599     25601     25602     25603     25602     25604
     25605     25606     25605     25607     25608     25609     25608     25610
     25611     25612     25611     25613     25614     25615     25614     25616
     25617     25618     25617     25619     25620     25621     25620     25622
     25623     25624     25623     25625     25626     25627     25626     25628
     25629     25630     25629     25631     25632     25633     25632     25634
     25635     25636     25635     25637     25638     25639     25638     25640
     25641     25642     25641     25643     25644     25645     25644     25646
     25647     25648     25647     25649     25650     25651     25650     25652
     25653     25654     25653     25655     25656     25657     25656     25658
     25659     25660     25659     25661     25662     25663     25662     25664
     25665     25666     25665     25667     25668     25669     25668     25670
     25671     25672     25671     25673     25674     25675     25674     25676
     25677     25678     25677     25679     25680     25681     25680     25682
     25683     25684     25683     25685     25686     25687     25686     25688
     25689     25690     25689     25691     25692     25693     25692     25694
     25695     25696     25695     25697     25698     25699     25698     25700
     25701     25702     25701     25703     25704     25705     25704     25706
     25707     25708     25707     25709     25710     25711     25710     25712
     25713     25714     25713     25715     25716     25717     25716     25718
     25719     25720     25719     25721     25722     25723     25722     25724
     25725     25726     25725     25727     25728     25729     25728     25730
     25731     25732     25731     25733     25734     25735     25734     25736
     25737     25738     25737     25739     25740     25741     25740     25742
     25743     25744     25743     25745     25746     25747     25746     25748
     25749     25750     25749     25751     25752     25753     25752     25754
     25755     25756     25755     25757     25758     25759     25758     25760
     25761     25762     25761     25763     25764     25765     25764     25766
     25767     25768     25767     25769     25770     25771     25770     25772
     25773     25774     25773     25775     25776     25777     25776     25778
     25779     25780     25779     25781     25782     25783     25782     25784
     25785     25786     25785     25787     25788     25789     25788     25790
     25791     25792     25791     25793     25794     25795     25794     25796
     25797     25798     25797     25799     25800     25801     25800     25802
     25803     25804     25803     25805     25806     25807     25806     25808
     25809     25810     25809     25811     25812     25813     25812     25814
     25815     25816     25815     25817     25818     25819     25818     25820
     25821     25822     25821     25823     25824     25825     25824     25826
     25827     25828     25827     25829     25830     25831     25830     25832
     25833     25834     25833     25835     25836     25837     25836     25838
     25839     25840     25839     25841     25842     25843     25842     25844
     25845     25846     25845     25847     25848     25849     25848     25850
     25851     25852     25851     25853     25854     25855     25854     25856
     25857     25858     25857     25859     25860     25861     25860     25862
     25863     25864     25863     25865     25866     25867     25866     25868
     25869     25870     25869     25871     25872     25873     25872     25874
     25875     25876     25875     25877     25878     25879     25878     25880
     25881     25882     25881     25883     25884     25885     25884     25886
     25887     25888     25887     25889     25890     25891     25890     25892
     25893     25894     25893     25895     25896     25897     25896     25898
     25899     25900     25899     25901     25902     25903     25902     25904
     25905     25906     25905     25907     25908     25909     25908     25910
     25911     25912     25911     25913     25914     25915     25914     25916
     25917     25918     25917     25919     25920     25921     25920     25922
     25923     25924     25923     25925     25926     25927     25926     25928
     25929     25930     25929     25931     25932     25933     25932     25934
     25935     25936     25935     25937     25938     25939     25938     25940
     25941     25942     25941     25943     25944     25945     25944     25946
     25947     25948     25947     25949     25950     25951     25950     25952
     25953     25954     25953     25955     25956     25957     25956     25958
     25959     25960     25959     25961     25962     25963     25962     25964
     25965     25966     25965     25967     25968     25969     25968     25970
     25971     25972     25971     25973     25974     25975     25974     25976
     25977     25978     25977     25979     25980     25981     25980     25982
     25983     25984     25983     25985     25986     25987     25986     25988
     25989     25990     25989     25991     25992     25993     25992     25994
     25995     25996     25995     25997     25998     25999     25998     26000
     26001     26002     26001     26003     26004     26005     26004     26006
     26007     26008     26007     26009     26010     26011     26010     26012
     26013     26014     26013     26015     26016     26017     26016     26018
     26019     26020     26019     26021     26022     26023     26022     26024
     26025     26026     26025     26027     26028     26029     26028     26030
     26031     26032     26031     26033     26034     26035     26034     26036
     26037     26038     26037     26039     26040     26041     26040     26042
     26043     26044     26043     26045     26046     26047     26046     26048
     26049     26050     26049     26051     26052     26053     26052     26054
     26055     26056     26055     26057     26058     26059     26058     26060
     26061     26062     26061     26063     26064     26065     26064     26066
     26067     26068     26067     26069     26070     26071     26070     26072
     26073     26074     26073     26075     26076     26077     26076     26078
     26079     26080     26079     26081     26082     26083     26082     26084
     26085     26086     26085     26087     26088     26089     26088     26090
     26091     26092     26091     26093     26094     26095     26094     26096
     26097     26098     26097     26099     26100     26101     26100     26102
     26103     26104     26103     26105     26106     26107     26106     26108
     26109     26110     26109     26111     26112     26113     26112     26114
     26115     26116     26115     26117     26118     26119     26118     26120
     26121     26122     26121     26123     26124     26125     26124     26126
     26127     26128     26127     26129     26130     26131     26130     26132
     26133     26134     26133     26135     26136     26137     26136     26138
     26139     26140     26139     26141     26142     26143     26142     26144
     26145     26146     26145     26147     26148     26149     26148     26150
     26151     26152     26151     26153     26154     26155     26154     26156
     26157     26158     26157     26159     26160     26161     26160     26162
     26163     26164     26163     26165     26166     26167     26166     26168
     26169     26170     26169     26171     26172     26173     26172     26174
     26175     26176     26175     26177     26178     26179     26178     26180
     26181     26182     26181     26183     26184     26185     26184     26186
     26187     26188     26187     26189     26190     26191     26190     26192
     26193     26194     26193     26195     26196     26197     26196     26198
     26199     26200     26199     26201     26202     26203     26202     26204
     26205     26206     26205     26207     26208     26209     26208     26210
     26211     26212     26211     26213     26214     26215     26214     26216
     26217     26218     26217     26219     26220     26221     26220     26222
     26223     26224     26223     26225     26226     26227     26226     26228
     26229     26230     26229     26231     26232     26233     26232     26234
     26235     26236     26235     26237     26238     26239     26238     26240
     26241     26242     26241     26243     26244     26245     26244     26246
     26247     26248     26247     26249     26250     26251     26250     26252
     26253     26254     26253     26255     26256     26257     26256     26258
     26259     26260     26259     26261     26262     26263     26262     26264
     26265     26266     26265     26267     26268     26269     26268     26270
     26271     26272     26271     26273     26274     26275     26274     26276
     26277     26278     26277     26279     26280     26281     26280     26282
     26283     26284     26283     26285     26286     26287     26286     26288
     26289     26290     26289     26291     26292     26293     26292     26294
     26295     26296     26295     26297     26298     26299     26298     26300
     26301     26302     26301     26303     26304     26305     26304     26306
     26307     26308     26307     26309     26310     26311     26310     26312
     26313     26314     26313     26315     26316     26317     26316     26318
     26319     26320     26319     26321     26322     26323     26322     26324
     26325     26326     26325     26327     26328     26329     26328     26330
     26331     26332     26331     26333     26334     26335     26334     26336
     26337     26338     26337     26339     26340     26341     26340     26342
     26343     26344     26343     26345     26346     26347     26346     26348
     26349     26350     26349     26351     26352     26353     26352     26354
     26355     26356     26355     26357     26358     26359     26358     26360
     26361     26362     26361     26363     26364     26365     26364     26366
     26367     26368     26367     26369     26370     26371     26370     26372
     26373     26374     26373     26375     26376     26377     26376     26378
     26379     26380     26379     26381     26382     26383     26382     26384
     26385     26386     26385     26387     26388     26389     26388     26390
     26391     26392     26391     26393     26394     26395     26394     26396
     26397     26398     26397     26399     26400     26401     26400     26402
     26403     26404     26403     26405     26406     26407     26406     26408
     26409     26410     26409     26411     26412     26413     26412     26414
     26415     26416     26415     26417     26418     26419     26418     26420
     26421     26422     26421     26423     26424     26425     26424     26426
     26427     26428     26427     26429     26430     26431     26430     26432
     26433     26434     26433     26435     26436     26437     26436     26438
     26439     26440     26439     26441     26442     26443     26442     26444
     26445     26446     26445     26447     26448     26449     26448     26450
     26451     26452     26451     26453     26454     26455     26454     26456
     26457     26458     26457     26459     26460     26461     26460     26462
     26463     26464     26463     26465     26466     26467     26466     26468
     26469     26470     26469     26471     26472     26473     26472     26474
     26475     26476     26475     26477     26478     26479     26478     26480
     26481     26482     26481     26483     26484     26485     26484     26486
     26487     26488     26487     26489     26490     26491     26490     26492
     26493     26494     26493     26495     26496     26497     26496     26498
     26499     26500     26499     26501     26502     26503     26502     26504
     26505     26506     26505     26507     26508     26509     26508     26510
     26511     26512     26511     26513     26514     26515     26514     26516
     26517     26518     26517     26519     26520     26521     26520     26522
     26523     26524     26523     26525     26526     26527     26526     26528
     26529     26530     26529     26531     26532     26533     26532     26534
     26535     26536     26535     26537     26538     26539     26538     26540
     26541     26542     26541     26543     26544     26545     26544     26546
     26547     26548     26547     26549     26550     26551     26550     26552
     26553     26554     26553     26555     26556     26557     26556     26558
     26559     26560     26559     26561     26562     26563     26562     26564
     26565     26566     26565     26567     26568     26569     26568     26570
     26571     26572     26571     26573     26574     26575     26574     26576
     26577     26578     26577     26579     26580     26581     26580     26582
     26583     26584     26583     26585     26586     26587     26586     26588
     26589     26590     26589     26591     26592     26593     26592     26594
     26595     26596     26595     26597     26598     26599     26598     26600
     26601     26602     26601     26603     26604     26605     26604     26606
     26607     26608     26607     26609     26610     26611     26610     26612
     26613     26614     26613     26615     26616     26617     26616     26618
     26619     26620     26619     26621     26622     26623     26622     26624
     26625     26626     26625     26627     26628     26629     26628     26630
     26631     26632     26631     26633     26634     26635     26634     26636
     26637     26638     26637     26639     26640     26641     26640     26642
     26643     26644     26643     26645     26646     26647     26646     26648
     26649     26650     26649     26651     26652     26653     26652     26654
     26655     26656     26655     26657     26658     26659     26658     26660
     26661     26662     26661     26663     26664     26665     26664     26666
     26667     26668     26667     26669     26670     26671     26670     26672
     26673     26674     26673     26675     26676     26677     26676     26678
     26679     26680     26679     26681     26682     26683     26682     26684
     26685     26686     26685     26687     26688     26689     26688     26690
     26691     26692     26691     26693     26694     26695     26694     26696
     26697     26698     26697     26699     26700     26701     26700     26702
     26703     26704     26703     26705     26706     26707     26706     26708
     26709     26710     26709     26711     26712     26713     26712     26714
     26715     26716     26715     26717     26718     26719     26718     26720
     26721     26722     26721     26723     26724     26725     26724     26726
     26727     26728     26727     26729     26730     26731     26730     26732
     26733     26734     26733     26735     26736     26737     26736     26738
     26739     26740     26739     26741     26742     26743     26742     26744
     26745     26746     26745     26747     26748     26749     26748     26750
     26751     26752     26751     26753     26754     26755     26754     26756
     26757     26758     26757     26759     26760     26761     26760     26762
     26763     26764     26763     26765     26766     26767     26766     26768
     26769     26770     26769     26771     26772     26773     26772     26774
     26775     26776     26775     26777     26778     26779     26778     26780
     26781     26782     26781     26783     26784     26785     26784     26786
     26787     26788     26787     26789     26790     26791     26790     26792
     26793     26794     26793     26795     26796     26797     26796     26798
     26799     26800     26799     26801     26802     26803     26802     26804
     26805     26806     26805     26807     26808     26809     26808     26810
     26811     26812     26811     26813     26814     26815     26814     26816
     26817     26818     26817     26819     26820     26821     26820     26822
     26823     26824     26823     26825     26826     26827     26826     26828
     26829     26830     26829     26831     26832     26833     26832     26834
     26835     26836     26835     26837     26838     26839     26838     26840
     26841     26842     26841     26843     26844     26845     26844     26846
     26847     26848     26847     26849     26850     26851     26850     26852
     26853     26854     26853     26855     26856     26857     26856     26858
     26859     26860     26859     26861     26862     26863     26862     26864
     26865     26866     26865     26867     26868     26869     26868     26870
     26871     26872     26871     26873     26874     26875     26874     26876
     26877     26878     26877     26879     26880     26881     26880     26882
     26883     26884     26883     26885     26886     26887     26886     26888
     26889     26890     26889     26891     26892     26893     26892     26894
     26895     26896     26895     26897     26898     26899     26898     26900
     26901     26902     26901     26903     26904     26905     26904     26906
     26907     26908     26907     26909     26910     26911     26910     26912
     26913     26914     26913     26915     26916     26917     26916     26918
     26919     26920     26919     26921     26922     26923     26922     26924
     26925     26926     26925     26927     26928     26929     26928     26930
     26931     26932     26931     26933     26934     26935     26934     26936
     26937     26938     26937     26939     26940     26941     26940     26942
     26943     26944     26943     26945     26946     26947     26946     26948
     26949     26950     26949     26951     26952     26953     26952     26954
     26955     26956     26955     26957     26958     26959     26958     26960
     26961     26962     26961     26963     26964     26965     26964     26966
     26967     26968     26967     26969     26970     26971     26970     26972
     26973     26974     26973     26975     26976     26977     26976     26978
     26979     26980     26979     26981     26982     26983     26982     26984
     26985     26986     26985     26987     26988     26989     26988     26990
     26991     26992     26991     26993     26994     26995     26994     26996
     26997     26998     26997     26999     27000     27001     27000     27002
     27003     27004     27003     27005     27006     27007     27006     27008
     27009     27010     27009     27011     27012     27013     27012     27014
     27015     27016     27015     27017     27018     27019     27018     27020
     27021     27022     27021     27023     27024     27025     27024     27026
     27027     27028     27027     27029     27030     27031     27030     27032
     27033     27034     27033     27035     27036     27037     27036     27038
     27039     27040     27039     27041     27042     27043     27042     27044
     27045     27046     27045     27047     27048     27049     27048     27050
     27051     27052     27051     27053     27054     27055     27054     27056
     27057     27058     27057     27059     27060     27061     27060     27062
     27063     27064     27063     27065     27066     27067     27066     27068
     27069     27070     27069     27071     27072     27073     27072     27074
     27075     27076     27075     27077     27078     27079     27078     27080
     27081     27082     27081     27083     27084     27085     27084     27086
     27087     27088     27087     27089     27090     27091     27090     27092
     27093     27094     27093     27095     27096     27097     27096     27098
     27099     27100     27099     27101     27102     27103     27102     27104
     27105     27106     27105     27107     27108     27109     27108     27110
     27111     27112     27111     27113     27114     27115     27114     27116
     27117     27118     27117     27119     27120     27121     27120     27122
     27123     27124     27123     27125     27126     27127     27126     27128
     27129     27130     27129     27131     27132     27133     27132     27134
     27135     27136     27135     27137     27138     27139     27138     27140
     27141     27142     27141     27143     27144     27145     27144     27146
     27147     27148     27147     27149     27150     27151     27150     27152
     27153     27154     27153     27155     27156     27157     27156     27158
     27159     27160     27159     27161     27162     27163     27162     27164
     27165     27166     27165     27167     27168     27169     27168     27170
     27171     27172     27171     27173     27174     27175     27174     27176
     27177     27178     27177     27179     27180     27181     27180     27182
     27183     27184     27183     27185     27186     27187     27186     27188
     27189     27190     27189     27191     27192     27193     27192     27194
     27195     27196     27195     27197     27198     27199     27198     27200
     27201     27202     27201     27203     27204     27205     27204     27206
     27207     27208     27207     27209     27210     27211     27210     27212
     27213     27214     27213     27215     27216     27217     27216     27218
     27219     27220     27219     27221     27222     27223     27222     27224
     27225     27226     27225     27227     27228     27229     27228     27230
     27231     27232     27231     27233     27234     27235     27234     27236
     27237     27238     27237     27239     27240     27241     27240     27242
     27243     27244     27243     27245     27246     27247     27246     27248
     27249     27250     27249     27251     27252     27253     27252     27254
     27255     27256     27255     27257     27258     27259     27258     27260
     27261     27262     27261     27263     27264     27265     27264     27266
     27267     27268     27267     27269     27270     27271     27270     27272
     27273     27274     27273     27275     27276     27277     27276     27278
     27279     27280     27279     27281     27282     27283     27282     27284
     27285     27286     27285     27287     27288     27289     27288     27290
     27291     27292     27291     27293     27294     27295     27294     27296
     27297     27298     27297     27299     27300     27301     27300     27302
     27303     27304     27303     27305     27306     27307     27306     27308
     27309     27310     27309     27311     27312     27313     27312     27314
     27315     27316     27315     27317     27318     27319     27318     27320
     27321     27322     27321     27323     27324     27325     27324     27326
     27327     27328     27327     27329     27330     27331     27330     27332
     27333     27334     27333     27335     27336     27337     27336     27338
     27339     27340     27339     27341     27342     27343     27342     27344
     27345     27346     27345     27347     27348     27349     27348     27350
     27351     27352     27351     27353     27354     27355     27354     27356
     27357     27358     27357     27359     27360     27361     27360     27362
     27363     27364     27363     27365     27366     27367     27366     27368
     27369     27370     27369     27371     27372     27373     27372     27374
     27375     27376     27375     27377     27378     27379     27378     27380
     27381     27382     27381     27383     27384     27385     27384     27386
     27387     27388     27387     27389     27390     27391     27390     27392
     27393     27394     27393     27395     27396     27397     27396     27398
     27399     27400     27399     27401     27402     27403     27402     27404
     27405     27406     27405     27407     27408     27409     27408     27410
     27411     27412     27411     27413     27414     27415     27414     27416
     27417     27418     27417     27419     27420     27421     27420     27422
     27423     27424     27423     27425     27426     27427     27426     27428
     27429     27430     27429     27431     27432     27433     27432     27434
     27435     27436     27435     27437     27438     27439     27438     27440
     27441     27442     27441     27443     27444     27445     27444     27446
     27447     27448     27447     27449     27450     27451     27450     27452
     27453     27454     27453     27455     27456     27457     27456     27458
     27459     27460     27459     27461     27462     27463     27462     27464
     27465     27466     27465     27467     27468     27469     27468     27470
     27471     27472     27471     27473     27474     27475     27474     27476
     27477     27478     27477     27479     27480     27481     27480     27482
     27483     27484     27483     27485     27486     27487     27486     27488
     27489     27490     27489     27491     27492     27493     27492     27494
     27495     27496     27495     27497     27498     27499     27498     27500
     27501     27502     27501     27503     27504     27505     27504     27506
     27507     27508     27507     27509     27510     27511     27510     27512
     27513     27514     27513     27515     27516     27517     27516     27518
     27519     27520     27519     27521     27522     27523     27522     27524
     27525     27526     27525     27527     27528     27529     27528     27530
     27531     27532     27531     27533     27534     27535     27534     27536
     27537     27538     27537     27539     27540     27541     27540     27542
     27543     27544     27543     27545     27546     27547     27546     27548
     27549     27550     27549     27551     27552     27553     27552     27554
     27555     27556     27555     27557     27558     27559     27558     27560
     27561     27562     27561     27563     27564     27565     27564     27566
     27567     27568     27567     27569     27570     27571     27570     27572
     27573     27574     27573     27575     27576     27577     27576     27578
     27579     27580     27579     27581     27582     27583     27582     27584
     27585     27586     27585     27587     27588     27589     27588     27590
     27591     27592     27591     27593     27594     27595     27594     27596
     27597     27598     27597     27599     27600     27601     27600     27602
     27603     27604     27603     27605     27606     27607     27606     27608
     27609     27610     27609     27611     27612     27613     27612     27614
     27615     27616     27615     27617     27618     27619     27618     27620
     27621     27622     27621     27623     27624     27625     27624     27626
     27627     27628     27627     27629     27630     27631     27630     27632
     27633     27634     27633     27635     27636     27637     27636     27638
     27639     27640     27639     27641     27642     27643     27642     27644
     27645     27646     27645     27647     27648     27649     27648     27650
     27651     27652     27651     27653     27654     27655     27654     27656
     27657     27658     27657     27659     27660     27661     27660     27662
     27663     27664     27663     27665     27666     27667     27666     27668
     27669     27670     27669     27671     27672     27673     27672     27674
     27675     27676     27675     27677     27678     27679     27678     27680
     27681     27682     27681     27683     27684     27685     27684     27686
     27687     27688     27687     27689     27690     27691     27690     27692
     27693     27694     27693     27695     27696     27697     27696     27698
     27699     27700     27699     27701     27702     27703     27702     27704
     27705     27706     27705     27707     27708     27709     27708     27710
     27711     27712     27711     27713     27714     27715     27714     27716
     27717     27718     27717     27719     27720     27721     27720     27722
     27723     27724     27723     27725     27726     27727     27726     27728
     27729     27730     27729     27731     27732     27733     27732     27734
     27735     27736     27735     27737     27738     27739     27738     27740
     27741     27742     27741     27743     27744     27745     27744     27746
     27747     27748     27747     27749     27750     27751     27750     27752
     27753     27754     27753     27755     27756     27757     27756     27758
     27759     27760     27759     27761     27762     27763     27762     27764
     27765     27766     27765     27767     27768     27769     27768     27770
     27771     27772     27771     27773     27774     27775     27774     27776
     27777     27778     27777     27779     27780     27781     27780     27782
     27783     27784     27783     27785     27786     27787     27786     27788
     27789     27790     27789     27791     27792     27793     27792     27794
     27795     27796     27795     27797     27798     27799     27798     27800
     27801     27802     27801     27803     27804     27805     27804     27806
     27807     27808     27807     27809     27810     27811     27810     27812
     27813     27814     27813     27815     27816     27817     27816     27818
     27819     27820     27819     27821     27822     27823     27822     27824
     27825     27826     27825     27827     27828     27829     27828     27830
     27831     27832     27831     27833     27834     27835     27834     27836
     27837     27838     27837     27839     27840     27841     27840     27842
     27843     27844     27843     27845     27846     27847     27846     27848
     27849     27850     27849     27851     27852     27853     27852     27854
     27855     27856     27855     27857     27858     27859     27858     27860
     27861     27862     27861     27863     27864     27865     27864     27866
     27867     27868     27867     27869     27870     27871     27870     27872
     27873     27874     27873     27875     27876     27877     27876     27878
     27879     27880     27879     27881     27882     27883     27882     27884
     27885     27886     27885     27887     27888     27889     27888     27890
     27891     27892     27891     27893     27894     27895     27894     27896
     27897     27898     27897     27899     27900     27901     27900     27902
     27903     27904     27903     27905     27906     27907     27906     27908
     27909     27910     27909     27911     27912     27913     27912     27914
     27915     27916     27915     27917     27918     27919     27918     27920
     27921     27922     27921     27923     27924     27925     27924     27926
     27927     27928     27927     27929     27930     27931     27930     27932
     27933     27934     27933     27935     27936     27937     27936     27938
     27939     27940     27939     27941     27942     27943     27942     27944
     27945     27946     27945     27947     27948     27949     27948     27950
     27951     27952     27951     27953     27954     27955     27954     27956
     27957     27958     27957     27959     27960     27961     27960     27962
     27963     27964     27963     27965     27966     27967     27966     27968
     27969     27970     27969     27971     27972     27973     27972     27974
     27975     27976     27975     27977     27978     27979     27978     27980
     27981     27982     27981     27983     27984     27985     27984     27986
     27987     27988     27987     27989     27990     27991     27990     27992
     27993     27994     27993     27995     27996     27997     27996     27998
     27999     28000     27999     28001     28002     28003     28002     28004
     28005     28006     28005     28007     28008     28009     28008     28010
     28011     28012     28011     28013     28014     28015     28014     28016
     28017     28018     28017     28019     28020     28021     28020     28022
     28023     28024     28023     28025     28026     28027     28026     28028
     28029     28030     28029     28031     28032     28033     28032     28034
     28035     28036     28035     28037     28038     28039     28038     28040
     28041     28042     28041     28043     28044     28045     28044     28046
     28047     28048     28047     28049     28050     28051     28050     28052
     28053     28054     28053     28055     28056     28057     28056     28058
     28059     28060     28059     28061     28062     28063     28062     28064
     28065     28066     28065     28067     28068     28069     28068     28070
     28071     28072     28071     28073     28074     28075     28074     28076
     28077     28078     28077     28079     28080     28081     28080     28082
     28083     28084     28083     28085     28086     28087     28086     28088
     28089     28090     28089     28091     28092     28093     28092     28094
     28095     28096     28095     28097     28098     28099     28098     28100
     28101     28102     28101     28103     28104     28105     28104     28106
     28107     28108     28107     28109     28110     28111     28110     28112
     28113     28114     28113     28115     28116     28117     28116     28118
     28119     28120     28119     28121     28122     28123     28122     28124
     28125     28126     28125     28127     28128     28129     28128     28130
     28131     28132     28131     28133     28134     28135     28134     28136
     28137     28138     28137     28139     28140     28141     28140     28142
     28143     28144     28143     28145     28146     28147     28146     28148
     28149     28150     28149     28151     28152     28153     28152     28154
     28155     28156     28155     28157     28158     28159     28158     28160
     28161     28162     28161     28163     28164     28165     28164     28166
     28167     28168     28167     28169     28170     28171     28170     28172
     28173     28174     28173     28175     28176     28177     28176     28178
     28179     28180     28179     28181     28182     28183     28182     28184
     28185     28186     28185     28187     28188     28189     28188     28190
     28191     28192     28191     28193     28194     28195     28194     28196
     28197     28198     28197     28199     28200     28201     28200     28202
     28203     28204     28203     28205     28206     28207     28206     28208
     28209     28210     28209     28211     28212     28213     28212     28214
     28215     28216     28215     28217     28218     28219     28218     28220
     28221     28222     28221     28223     28224     28225     28224     28226
     28227     28228     28227     28229     28230     28231     28230     28232
     28233     28234     28233     28235     28236     28237     28236     28238
     28239     28240     28239     28241     28242     28243     28242     28244
     28245     28246     28245     28247     28248     28249     28248     28250
     28251     28252     28251     28253     28254     28255     28254     28256
     28257     28258     28257     28259     28260     28261     28260     28262
     28263     28264     28263     28265     28266     28267     28266     28268
     28269     28270     28269     28271     28272     28273     28272     28274
     28275     28276     28275     28277     28278     28279     28278     28280
     28281     28282     28281     28283     28284     28285     28284     28286
     28287     28288     28287     28289     28290     28291     28290     28292
     28293     28294     28293     28295     28296     28297     28296     28298
     28299     28300     28299     28301     28302     28303     28302     28304
     28305     28306     28305     28307     28308     28309     28308     28310
     28311     28312     28311     28313     28314     28315     28314     28316
     28317     28318     28317     28319     28320     28321     28320     28322
     28323     28324     28323     28325     28326     28327     28326     28328
     28329     28330     28329     28331     28332     28333     28332     28334
     28335     28336     28335     28337     28338     28339     28338     28340
     28341     28342     28341     28343     28344     28345     28344     28346
     28347     28348     28347     28349     28350     28351     28350     28352
     28353     28354     28353     28355     28356     28357     28356     28358
     28359     28360     28359     28361     28362     28363     28362     28364
     28365     28366     28365     28367     28368     28369     28368     28370
     28371     28372     28371     28373     28374     28375     28374     28376
     28377     28378     28377     28379     28380     28381     28380     28382
     28383     28384     28383     28385     28386     28387     28386     28388
     28389     28390     28389     28391     28392     28393     28392     28394
     28395     28396     28395     28397     28398     28399     28398     28400
     28401     28402     28401     28403     28404     28405     28404     28406
     28407     28408     28407     28409     28410     28411     28410     28412
     28413     28414     28413     28415     28416     28417     28416     28418
     28419     28420     28419     28421     28422     28423     28422     28424
     28425     28426     28425     28427     28428     28429     28428     28430
     28431     28432     28431     28433     28434     28435     28434     28436
     28437     28438     28437     28439     28440     28441     28440     28442
     28443     28444     28443     28445     28446     28447     28446     28448
     28449     28450     28449     28451     28452     28453     28452     28454
     28455     28456     28455     28457     28458     28459     28458     28460
     28461     28462     28461     28463     28464     28465     28464     28466
     28467     28468     28467     28469     28470     28471     28470     28472
     28473     28474     28473     28475     28476     28477     28476     28478
     28479     28480     28479     28481     28482     28483     28482     28484
     28485     28486     28485     28487     28488     28489     28488     28490
     28491     28492     28491     28493     28494     28495     28494     28496
     28497     28498     28497     28499     28500     28501     28500     28502
     28503     28504     28503     28505     28506     28507     28506     28508
     28509     28510     28509     28511     28512     28513     28512     28514
     28515     28516     28515     28517     28518     28519     28518     28520
     28521     28522     28521     28523     28524     28525     28524     28526
     28527     28528     28527     28529     28530     28531     28530     28532
     28533     28534     28533     28535     28536     28537     28536     28538
     28539     28540     28539     28541     28542     28543     28542     28544
     28545     28546     28545     28547     28548     28549     28548     28550
     28551     28552     28551     28553     28554     28555     28554     28556
     28557     28558     28557     28559     28560     28561     28560     28562
     28563     28564     28563     28565     28566     28567     28566     28568
     28569     28570     28569     28571     28572     28573     28572     28574
     28575     28576     28575     28577     28578     28579     28578     28580
     28581     28582     28581     28583     28584     28585     28584     28586
     28587     28588     28587     28589     28590     28591     28590     28592
     28593     28594     28593     28595     28596     28597     28596     28598
     28599     28600     28599     28601     28602     28603     28602     28604
     28605     28606     28605     28607     28608     28609     28608     28610
     28611     28612     28611     28613     28614     28615     28614     28616
     28617     28618     28617     28619     28620     28621     28620     28622
     28623     28624     28623     28625     28626     28627     28626     28628
     28629     28630     28629     28631     28632     28633     28632     28634
     28635     28636     28635     28637     28638     28639     28638     28640
     28641     28642     28641     28643     28644     28645     28644     28646
     28647     28648     28647     28649     28650     28651     28650     28652
     28653     28654     28653     28655     28656     28657     28656     28658
     28659     28660     28659     28661     28662     28663     28662     28664
     28665     28666     28665     28667     28668     28669     28668     28670
     28671     28672     28671     28673     28674     28675     28674     28676
     28677     28678     28677     28679     28680     28681     28680     28682
     28683     28684     28683     28685     28686     28687     28686     28688
     28689     28690     28689     28691     28692     28693     28692     28694
     28695     28696     28695     28697     28698     28699     28698     28700
     28701     28702     28701     28703     28704     28705     28704     28706
     28707     28708     28707     28709     28710     28711     28710     28712
     28713     28714     28713     28715     28716     28717     28716     28718
     28719     28720     28719     28721     28722     28723     28722     28724
     28725     28726     28725     28727     28728     28729     28728     28730
     28731     28732     28731     28733     28734     28735     28734     28736
     28737     28738     28737     28739     28740     28741     28740     28742
     28743     28744     28743     28745     28746     28747     28746     28748
     28749     28750     28749     28751     28752     28753     28752     28754
     28755     28756     28755     28757     28758     28759     28758     28760
     28761     28762     28761     28763     28764     28765     28764     28766
     28767     28768     28767     28769     28770     28771     28770     28772
     28773     28774     28773     28775     28776     28777     28776     28778
     28779     28780     28779     28781     28782     28783     28782     28784
     28785     28786     28785     28787     28788     28789     28788     28790
     28791     28792     28791     28793     28794     28795     28794     28796
     28797     28798     28797     28799     28800     28801     28800     28802
     28803     28804     28803     28805     28806     28807     28806     28808
     28809     28810     28809     28811     28812     28813     28812     28814
     28815     28816     28815     28817     28818     28819     28818     28820
     28821     28822     28821     28823     28824     28825     28824     28826
     28827     28828     28827     28829     28830     28831     28830     28832
     28833     28834     28833     28835     28836     28837     28836     28838
     28839     28840     28839     28841     28842     28843     28842     28844
     28845     28846     28845     28847     28848     28849     28848     28850
     28851     28852     28851     28853     28854     28855     28854     28856
     28857     28858     28857     28859     28860     28861     28860     28862
     28863     28864     28863     28865     28866     28867     28866     28868
     28869     28870     28869     28871     28872     28873     28872     28874
     28875     28876     28875     28877     28878     28879     28878     28880
     28881     28882     28881     28883     28884     28885     28884     28886
     28887     28888     28887     28889     28890     28891     28890     28892
     28893     28894     28893     28895     28896     28897     28896     28898
     28899     28900     28899     28901     28902     28903     28902     28904
     28905     28906     28905     28907     28908     28909     28908     28910
     28911     28912     28911     28913     28914     28915     28914     28916
     28917     28918     28917     28919     28920     28921     28920     28922
     28923     28924     28923     28925     28926     28927     28926     28928
     28929     28930     28929     28931     28932     28933     28932     28934
     28935     28936     28935     28937     28938     28939     28938     28940
     28941     28942     28941     28943     28944     28945     28944     28946
     28947     28948     28947     28949     28950     28951     28950     28952
     28953     28954     28953     28955     28956     28957     28956     28958
     28959     28960     28959     28961     28962     28963     28962     28964
     28965     28966     28965     28967     28968     28969     28968     28970
     28971     28972     28971     28973     28974     28975     28974     28976
     28977     28978     28977     28979     28980     28981     28980     28982
     28983     28984     28983     28985     28986     28987     28986     28988
     28989     28990     28989     28991     28992     28993     28992     28994
     28995     28996     28995     28997     28998     28999     28998     29000
     29001     29002     29001     29003     29004     29005     29004     29006
     29007     29008     29007     29009     29010     29011     29010     29012
     29013     29014     29013     29015     29016     29017     29016     29018
     29019     29020     29019     29021     29022     29023     29022     29024
     29025     29026     29025     29027     29028     29029     29028     29030
     29031     29032     29031     29033     29034     29035     29034     29036
     29037     29038     29037     29039     29040     29041     29040     29042
     29043     29044     29043     29045     29046     29047     29046     29048
     29049     29050     29049     29051     29052     29053     29052     29054
     29055     29056     29055     29057     29058     29059     29058     29060
     29061     29062     29061     29063     29064     29065     29064     29066
     29067     29068     29067     29069     29070     29071     29070     29072
     29073     29074     29073     29075     29076     29077     29076     29078
     29079     29080     29079     29081     29082     29083     29082     29084
     29085     29086     29085     29087     29088     29089     29088     29090
     29091     29092     29091     29093     29094     29095     29094     29096
     29097     29098     29097     29099     29100     29101     29100     29102
     29103     29104     29103     29105     29106     29107     29106     29108
     29109     29110     29109     29111     29112     29113     29112     29114
     29115     29116     29115     29117     29118     29119     29118     29120
     29121     29122     29121     29123     29124     29125     29124     29126
     29127     29128     29127     29129     29130     29131     29130     29132
     29133     29134     29133     29135     29136     29137     29136     29138
     29139     29140     29139     29141     29142     29143     29142     29144
     29145     29146     29145     29147     29148     29149     29148     29150
     29151     29152     29151     29153     29154     29155     29154     29156
     29157     29158     29157     29159     29160     29161     29160     29162
     29163     29164     29163     29165     29166     29167     29166     29168
     29169     29170     29169     29171     29172     29173     29172     29174
     29175     29176     29175     29177     29178     29179     29178     29180
     29181     29182     29181     29183     29184     29185     29184     29186
     29187     29188     29187     29189     29190     29191     29190     29192
     29193     29194     29193     29195     29196     29197     29196     29198
     29199     29200     29199     29201     29202     29203     29202     29204
     29205     29206     29205     29207     29208     29209     29208     29210
     29211     29212     29211     29213     29214     29215     29214     29216
     29217     29218     29217     29219     29220     29221     29220     29222
     29223     29224     29223     29225     29226     29227     29226     29228
     29229     29230     29229     29231     29232     29233     29232     29234
     29235     29236     29235     29237     29238     29239     29238     29240
     29241     29242     29241     29243     29244     29245     29244     29246
     29247     29248     29247     29249     29250     29251     29250     29252
     29253     29254     29253     29255     29256     29257     29256     29258
     29259     29260     29259     29261     29262     29263     29262     29264
     29265     29266     29265     29267     29268     29269     29268     29270
     29271     29272     29271     29273     29274     29275     29274     29276
     29277     29278     29277     29279     29280     29281     29280     29282
     29283     29284     29283     29285     29286     29287     29286     29288
     29289     29290     29289     29291     29292     29293     29292     29294
     29295     29296     29295     29297     29298     29299     29298     29300
     29301     29302     29301     29303     29304     29305     29304     29306
     29307     29308     29307     29309     29310     29311     29310     29312
     29313     29314     29313     29315     29316     29317     29316     29318
     29319     29320     29319     29321     29322     29323     29322     29324
     29325     29326     29325     29327     29328     29329     29328     29330
     29331     29332     29331     29333     29334     29335     29334     29336
     29337     29338     29337     29339     29340     29341     29340     29342
     29343     29344     29343     29345     29346     29347     29346     29348
     29349     29350     29349     29351     29352     29353     29352     29354
     29355     29356     29355     29357     29358     29359     29358     29360
     29361     29362     29361     29363     29364     29365     29364     29366
     29367     29368     29367     29369     29370     29371     29370     29372
     29373     29374     29373     29375     29376     29377     29376     29378
     29379     29380     29379     29381     29382     29383     29382     29384
     29385     29386     29385     29387     29388     29389     29388     29390
     29391     29392     29391     29393     29394     29395     29394     29396
     29397     29398     29397     29399     29400     29401     29400     29402
     29403     29404     29403     29405     29406     29407     29406     29408
     29409     29410     29409     29411     29412     29413     29412     29414
     29415     29416     29415     29417     29418     29419     29418     29420
     29421     29422     29421     29423     29424     29425     29424     29426
     29427     29428     29427     29429     29430     29431     29430     29432
     29433     29434     29433     29435     29436     29437     29436     29438
     29439     29440     29439     29441     29442     29443     29442     29444
     29445     29446     29445     29447     29448     29449     29448     29450
     29451     29452     29451     29453     29454     29455     29454     29456
     29457     29458     29457     29459     29460     29461     29460     29462
     29463     29464     29463     29465     29466     29467     29466     29468
     29469     29470     29469     29471     29472     29473     29472     29474
     29475     29476     29475     29477     29478     29479     29478     29480
     29481     29482     29481     29483     29484     29485     29484     29486
     29487     29488     29487     29489     29490     29491     29490     29492
     29493     29494     29493     29495     29496     29497     29496     29498
     29499     29500     29499     29501     29502     29503     29502     29504
     29505     29506     29505     29507     29508     29509     29508     29510
     29511     29512     29511     29513     29514     29515     29514     29516
     29517     29518     29517     29519     29520     29521     29520     29522
     29523     29524     29523     29525     29526     29527     29526     29528
     29529     29530     29529     29531     29532     29533     29532     29534
     29535     29536     29535     29537     29538     29539     29538     29540
     29541     29542     29541     29543     29544     29545     29544     29546
     29547     29548     29547     29549     29550     29551     29550     29552
     29553     29554     29553     29555     29556     29557     29556     29558
     29559     29560     29559     29561     29562     29563     29562     29564
     29565     29566     29565     29567     29568     29569     29568     29570
     29571     29572     29571     29573     29574     29575     29574     29576
     29577     29578     29577     29579     29580     29581     29580     29582
     29583     29584     29583     29585     29586     29587     29586     29588
     29589     29590     29589     29591     29592     29593     29592     29594
     29595     29596     29595     29597     29598     29599     29598     29600
     29601     29602     29601     29603     29604     29605     29604     29606
     29607     29608     29607     29609     29610     29611     29610     29612
     29613     29614     29613     29615     29616     29617     29616     29618
     29619     29620     29619     29621     29622     29623     29622     29624
     29625     29626     29625     29627     29628     29629     29628     29630
     29631     29632     29631     29633     29634     29635     29634     29636
     29637     29638     29637     29639     29640     29641     29640     29642
     29643     29644     29643     29645     29646     29647     29646     29648
     29649     29650     29649     29651     29652     29653     29652     29654
     29655     29656     29655     29657     29658     29659     29658     29660
     29661     29662     29661     29663     29664     29665     29664     29666
     29667     29668     29667     29669     29670     29671     29670     29672
     29673     29674     29673     29675     29676     29677     29676     29678
     29679     29680     29679     29681     29682     29683     29682     29684
     29685     29686     29685     29687     29688     29689     29688     29690
     29691     29692     29691     29693     29694     29695     29694     29696
     29697     29698     29697     29699     29700     29701     29700     29702
     29703     29704     29703     29705     29706     29707     29706     29708
     29709     29710     29709     29711     29712     29713     29712     29714
     29715     29716     29715     29717     29718     29719     29718     29720
     29721     29722     29721     29723     29724     29725     29724     29726
     29727     29728     29727     29729     29730     29731     29730     29732
     29733     29734     29733     29735     29736     29737     29736     29738
     29739     29740     29739     29741     29742     29743     29742     29744
     29745     29746     29745     29747     29748     29749     29748     29750
     29751     29752     29751     29753     29754     29755     29754     29756
     29757     29758     29757     29759     29760     29761     29760     29762
     29763     29764     29763     29765     29766     29767     29766     29768
     29769     29770     29769     29771     29772     29773     29772     29774
     29775     29776     29775     29777     29778     29779     29778     29780
     29781     29782     29781     29783     29784     29785     29784     29786
     29787     29788     29787     29789     29790     29791     29790     29792
     29793     29794     29793     29795     29796     29797     29796     29798
     29799     29800     29799     29801     29802     29803     29802     29804
     29805     29806     29805     29807     29808     29809     29808     29810
     29811     29812     29811     29813     29814     29815     29814     29816

      7080 !NACC: acceptors
      8577      8576      8580      8576      8583      8576      8586      8576
      8589      8576      8592      8576      8595      8576      8598      8576
      8601      8576      8604      8576      8607      8576      8610      8576
      8613      8576      8616      8576      8619      8576      8622      8576
      8625      8576      8628      8576      8631      8576      8634      8576
      8637      8576      8640      8576      8643      8576      8646      8576
      8649      8576      8652      8576      8655      8576      8658      8576
      8661      8576      8664      8576      8667      8576      8670      8576
      8673      8576      8676      8576      8679      8576      8682      8576
      8685      8576      8688      8576      8691      8576      8694      8576
      8697      8576      8700      8576      8703      8576      8706      8576
      8709      8576      8712      8576      8715      8576      8718      8576
      8721      8576      8724      8576      8727      8576      8730      8576
      8733      8576      8736      8576      8739      8576      8742      8576
      8745      8576      8748      8576      8751      8576      8754      8576
      8757      8576      8760      8576      8763      8576      8766      8576
      8769      8576      8772      8576      8775      8576      8778      8576
      8781      8576      8784      8576      8787      8576      8790      8576
      8793      8576      8796      8576      8799      8576      8802      8576
      8805      8576      8808      8576      8811      8576      8814      8576
      8817      8576      8820      8576      8823      8576      8826      8576
      8829      8576      8832      8576      8835      8576      8838      8576
      8841      8576      8844      8576      8847      8576      8850      8576
      8853      8576      8856      8576      8859      8576      8862      8576
      8865      8576      8868      8576      8871      8576      8874      8576
      8877      8576      8880      8576      8883      8576      8886      8576
      8889      8576      8892      8576      8895      8576      8898      8576
      8901      8576      8904      8576      8907      8576      8910      8576
      8913      8576      8916      8576      8919      8576      8922      8576
      8925      8576      8928      8576      8931      8576      8934      8576
      8937      8576      8940      8576      8943      8576      8946      8576
      8949      8576      8952      8576      8955      8576      8958      8576
      8961      8576      8964      8576      8967      8576      8970      8576
      8973      8576      8976      8576      8979      8576      8982      8576
      8985      8576      8988      8576      8991      8576      8994      8576
      8997      8576      9000      8576      9003      8576      9006      8576
      9009      8576      9012      8576      9015      8576      9018      8576
      9021      8576      9024      8576      9027      8576      9030      8576
      9033      8576      9036      8576      9039      8576      9042      8576
      9045      8576      9048      8576      9051      8576      9054      8576
      9057      8576      9060      8576      9063      8576      9066      8576
      9069      8576      9072      8576      9075      8576      9078      8576
      9081      8576      9084      8576      9087      8576      9090      8576
      9093      8576      9096      8576      9099      8576      9102      8576
      9105      8576      9108      8576      9111      8576      9114      8576
      9117      8576      9120      8576      9123      8576      9126      8576
      9129      8576      9132      8576      9135      8576      9138      8576
      9141      8576      9144      8576      9147      8576      9150      8576
      9153      8576      9156      8576      9159      8576      9162      8576
      9165      8576      9168      8576      9171      8576      9174      8576
      9177      8576      9180      8576      9183      8576      9186      8576
      9189      8576      9192      8576      9195      8576      9198      8576
      9201      8576      9204      8576      9207      8576      9210      8576
      9213      8576      9216      8576      9219      8576      9222      8576
      9225      8576      9228      8576      9231      8576      9234      8576
      9237      8576      9240      8576      9243      8576      9246      8576
      9249      8576      9252      8576      9255      8576      9258      8576
      9261      8576      9264      8576      9267      8576      9270      8576
      9273      8576      9276      8576      9279      8576      9282      8576
      9285      8576      9288      8576      9291      8576      9294      8576
      9297      8576      9300      8576      9303      8576      9306      8576
      9309      8576      9312      8576      9315      8576      9318      8576
      9321      8576      9324      8576      9327      8576      9330      8576
      9333      8576      9336      8576      9339      8576      9342      8576
      9345      8576      9348      8576      9351      8576      9354      8576
      9357      8576      9360      8576      9363      8576      9366      8576
      9369      8576      9372      8576      9375      8576      9378      8576
      9381      8576      9384      8576      9387      8576      9390      8576
      9393      8576      9396      8576      9399      8576      9402      8576
      9405      8576      9408      8576      9411      8576      9414      8576
      9417      8576      9420      8576      9423      8576      9426      8576
      9429      8576      9432      8576      9435      8576      9438      8576
      9441      8576      9444      8576      9447      8576      9450      8576
      9453      8576      9456      8576      9459      8576      9462      8576
      9465      8576      9468      8576      9471      8576      9474      8576
      9477      8576      9480      8576      9483      8576      9486      8576
      9489      8576      9492      8576      9495      8576      9498      8576
      9501      8576      9504      8576      9507      8576      9510      8576
      9513      8576      9516      8576      9519      8576      9522      8576
      9525      8576      9528      8576      9531      8576      9534      8576
      9537      8576      9540      8576      9543      8576      9546      8576
      9549      8576      9552      8576      9555      8576      9558      8576
      9561      8576      9564      8576      9567      8576      9570      8576
      9573      8576      9576      8576      9579      8576      9582      8576
      9585      8576      9588      8576      9591      8576      9594      8576
      9597      8576      9600      8576      9603      8576      9606      8576
      9609      8576      9612      8576      9615      8576      9618      8576
      9621      8576      9624      8576      9627      8576      9630      8576
      9633      8576      9636      8576      9639      8576      9642      8576
      9645      8576      9648      8576      9651      8576      9654      8576
      9657      8576      9660      8576      9663      8576      9666      8576
      9669      8576      9672      8576      9675      8576      9678      8576
      9681      8576      9684      8576      9687      8576      9690      8576
      9693      8576      9696      8576      9699      8576      9702      8576
      9705      8576      9708      8576      9711      8576      9714      8576
      9717      8576      9720      8576      9723      8576      9726      8576
      9729      8576      9732      8576      9735      8576      9738      8576
      9741      8576      9744      8576      9747      8576      9750      8576
      9753      8576      9756      8576      9759      8576      9762      8576
      9765      8576      9768      8576      9771      8576      9774      8576
      9777      8576      9780      8576      9783      8576      9786      8576
      9789      8576      9792      8576      9795      8576      9798      8576
      9801      8576      9804      8576      9807      8576      9810      8576
      9813      8576      9816      8576      9819      8576      9822      8576
      9825      8576      9828      8576      9831      8576      9834      8576
      9837      8576      9840      8576      9843      8576      9846      8576
      9849      8576      9852      8576      9855      8576      9858      8576
      9861      8576      9864      8576      9867      8576      9870      8576
      9873      8576      9876      8576      9879      8576      9882      8576
      9885      8576      9888      8576      9891      8576      9894      8576
      9897      8576      9900      8576      9903      8576      9906      8576
      9909      8576      9912      8576      9915      8576      9918      8576
      9921      8576      9924      8576      9927      8576      9930      8576
      9933      8576      9936      8576      9939      8576      9942      8576
      9945      8576      9948      8576      9951      8576      9954      8576
      9957      8576      9960      8576      9963      8576      9966      8576
      9969      8576      9972      8576      9975      8576      9978      8576
      9981      8576      9984      8576      9987      8576      9990      8576
      9993      8576      9996      8576      9999      8576     10002      8576
     10005      8576     10008      8576     10011      8576     10014      8576
     10017      8576     10020      8576     10023      8576     10026      8576
     10029      8576     10032      8576     10035      8576     10038      8576
     10041      8576     10044      8576     10047      8576     10050      8576
     10053      8576     10056      8576     10059      8576     10062      8576
     10065      8576     10068      8576     10071      8576     10074      8576
     10077      8576     10080      8576     10083      8576     10086      8576
     10089      8576     10092      8576     10095      8576     10098      8576
     10101      8576     10104      8576     10107      8576     10110      8576
     10113      8576     10116      8576     10119      8576     10122      8576
     10125      8576     10128      8576     10131      8576     10134      8576
     10137      8576     10140      8576     10143      8576     10146      8576
     10149      8576     10152      8576     10155      8576     10158      8576
     10161      8576     10164      8576     10167      8576     10170      8576
     10173      8576     10176      8576     10179      8576     10182      8576
     10185      8576     10188      8576     10191      8576     10194      8576
     10197      8576     10200      8576     10203      8576     10206      8576
     10209      8576     10212      8576     10215      8576     10218      8576
     10221      8576     10224      8576     10227      8576     10230      8576
     10233      8576     10236      8576     10239      8576     10242      8576
     10245      8576     10248      8576     10251      8576     10254      8576
     10257      8576     10260      8576     10263      8576     10266      8576
     10269      8576     10272      8576     10275      8576     10278      8576
     10281      8576     10284      8576     10287      8576     10290      8576
     10293      8576     10296      8576     10299      8576     10302      8576
     10305      8576     10308      8576     10311      8576     10314      8576
     10317      8576     10320      8576     10323      8576     10326      8576
     10329      8576     10332      8576     10335      8576     10338      8576
     10341      8576     10344      8576     10347      8576     10350      8576
     10353      8576     10356      8576     10359      8576     10362      8576
     10365      8576     10368      8576     10371      8576     10374      8576
     10377      8576     10380      8576     10383      8576     10386      8576
     10389      8576     10392      8576     10395      8576     10398      8576
     10401      8576     10404      8576     10407      8576     10410      8576
     10413      8576     10416      8576     10419      8576     10422      8576
     10425      8576     10428      8576     10431      8576     10434      8576
     10437      8576     10440      8576     10443      8576     10446      8576
     10449      8576     10452      8576     10455      8576     10458      8576
     10461      8576     10464      8576     10467      8576     10470      8576
     10473      8576     10476      8576     10479      8576     10482      8576
     10485      8576     10488      8576     10491      8576     10494      8576
     10497      8576     10500      8576     10503      8576     10506      8576
     10509      8576     10512      8576     10515      8576     10518      8576
     10521      8576     10524      8576     10527      8576     10530      8576
     10533      8576     10536      8576     10539      8576     10542      8576
     10545      8576     10548      8576     10551      8576     10554      8576
     10557      8576     10560      8576     10563      8576     10566      8576
     10569      8576     10572      8576     10575      8576     10578      8576
     10581      8576     10584      8576     10587      8576     10590      8576
     10593      8576     10596      8576     10599      8576     10602      8576
     10605      8576     10608      8576     10611      8576     10614      8576
     10617      8576     10620      8576     10623      8576     10626      8576
     10629      8576     10632      8576     10635      8576     10638      8576
     10641      8576     10644      8576     10647      8576     10650      8576
     10653      8576     10656      8576     10659      8576     10662      8576
     10665      8576     10668      8576     10671      8576     10674      8576
     10677      8576     10680      8576     10683      8576     10686      8576
     10689      8576     10692      8576     10695      8576     10698      8576
     10701      8576     10704      8576     10707      8576     10710      8576
     10713      8576     10716      8576     10719      8576     10722      8576
     10725      8576     10728      8576     10731      8576     10734      8576
     10737      8576     10740      8576     10743      8576     10746      8576
     10749      8576     10752      8576     10755      8576     10758      8576
     10761      8576     10764      8576     10767      8576     10770      8576
     10773      8576     10776      8576     10779      8576     10782      8576
     10785      8576     10788      8576     10791      8576     10794      8576
     10797      8576     10800      8576     10803      8576     10806      8576
     10809      8576     10812      8576     10815      8576     10818      8576
     10821      8576     10824      8576     10827      8576     10830      8576
     10833      8576     10836      8576     10839      8576     10842      8576
     10845      8576     10848      8576     10851      8576     10854      8576
     10857      8576     10860      8576     10863      8576     10866      8576
     10869      8576     10872      8576     10875      8576     10878      8576
     10881      8576     10884      8576     10887      8576     10890      8576
     10893      8576     10896      8576     10899      8576     10902      8576
     10905      8576     10908      8576     10911      8576     10914      8576
     10917      8576     10920      8576     10923      8576     10926      8576
     10929      8576     10932      8576     10935      8576     10938      8576
     10941      8576     10944      8576     10947      8576     10950      8576
     10953      8576     10956      8576     10959      8576     10962      8576
     10965      8576     10968      8576     10971      8576     10974      8576
     10977      8576     10980      8576     10983      8576     10986      8576
     10989      8576     10992      8576     10995      8576     10998      8576
     11001      8576     11004      8576     11007      8576     11010      8576
     11013      8576     11016      8576     11019      8576     11022      8576
     11025      8576     11028      8576     11031      8576     11034      8576
     11037      8576     11040      8576     11043      8576     11046      8576
     11049      8576     11052      8576     11055      8576     11058      8576
     11061      8576     11064      8576     11067      8576     11070      8576
     11073      8576     11076      8576     11079      8576     11082      8576
     11085      8576     11088      8576     11091      8576     11094      8576
     11097      8576     11100      8576     11103      8576     11106      8576
     11109      8576     11112      8576     11115      8576     11118      8576
     11121      8576     11124      8576     11127      8576     11130      8576
     11133      8576     11136      8576     11139      8576     11142      8576
     11145      8576     11148      8576     11151      8576     11154      8576
     11157      8576     11160      8576     11163      8576     11166      8576
     11169      8576     11172      8576     11175      8576     11178      8576
     11181      8576     11184      8576     11187      8576     11190      8576
     11193      8576     11196      8576     11199      8576     11202      8576
     11205      8576     11208      8576     11211      8576     11214      8576
     11217      8576     11220      8576     11223      8576     11226      8576
     11229      8576     11232      8576     11235      8576     11238      8576
     11241      8576     11244      8576     11247      8576     11250      8576
     11253      8576     11256      8576     11259      8576     11262      8576
     11265      8576     11268      8576     11271      8576     11274      8576
     11277      8576     11280      8576     11283      8576     11286      8576
     11289      8576     11292      8576     11295      8576     11298      8576
     11301      8576     11304      8576     11307      8576     11310      8576
     11313      8576     11316      8576     11319      8576     11322      8576
     11325      8576     11328      8576     11331      8576     11334      8576
     11337      8576     11340      8576     11343      8576     11346      8576
     11349      8576     11352      8576     11355      8576     11358      8576
     11361      8576     11364      8576     11367      8576     11370      8576
     11373      8576     11376      8576     11379      8576     11382      8576
     11385      8576     11388      8576     11391      8576     11394      8576
     11397      8576     11400      8576     11403      8576     11406      8576
     11409      8576     11412      8576     11415      8576     11418      8576
     11421      8576     11424      8576     11427      8576     11430      8576
     11433      8576     11436      8576     11439      8576     11442      8576
     11445      8576     11448      8576     11451      8576     11454      8576
     11457      8576     11460      8576     11463      8576     11466      8576
     11469      8576     11472      8576     11475      8576     11478      8576
     11481      8576     11484      8576     11487      8576     11490      8576
     11493      8576     11496      8576     11499      8576     11502      8576
     11505      8576     11508      8576     11511      8576     11514      8576
     11517      8576     11520      8576     11523      8576     11526      8576
     11529      8576     11532      8576     11535      8576     11538      8576
     11541      8576     11544      8576     11547      8576     11550      8576
     11553      8576     11556      8576     11559      8576     11562      8576
     11565      8576     11568      8576     11571      8576     11574      8576
     11577      8576     11580      8576     11583      8576     11586      8576
     11589      8576     11592      8576     11595      8576     11598      8576
     11601      8576     11604      8576     11607      8576     11610      8576
     11613      8576     11616      8576     11619      8576     11622      8576
     11625      8576     11628      8576     11631      8576     11634      8576
     11637      8576     11640      8576     11643      8576     11646      8576
     11649      8576     11652      8576     11655      8576     11658      8576
     11661      8576     11664      8576     11667      8576     11670      8576
     11673      8576     11676      8576     11679      8576     11682      8576
     11685      8576     11688      8576     11691      8576     11694      8576
     11697      8576     11700      8576     11703      8576     11706      8576
     11709      8576     11712      8576     11715      8576     11718      8576
     11721      8576     11724      8576     11727      8576     11730      8576
     11733      8576     11736      8576     11739      8576     11742      8576
     11745      8576     11748      8576     11751      8576     11754      8576
     11757      8576     11760      8576     11763      8576     11766      8576
     11769      8576     11772      8576     11775      8576     11778      8576
     11781      8576     11784      8576     11787      8576     11790      8576
     11793      8576     11796      8576     11799      8576     11802      8576
     11805      8576     11808      8576     11811      8576     11814      8576
     11817      8576     11820      8576     11823      8576     11826      8576
     11829      8576     11832      8576     11835      8576     11838      8576
     11841      8576     11844      8576     11847      8576     11850      8576
     11853      8576     11856      8576     11859      8576     11862      8576
     11865      8576     11868      8576     11871      8576     11874      8576
     11877      8576     11880      8576     11883      8576     11886      8576
     11889      8576     11892      8576     11895      8576     11898      8576
     11901      8576     11904      8576     11907      8576     11910      8576
     11913      8576     11916      8576     11919      8576     11922      8576
     11925      8576     11928      8576     11931      8576     11934      8576
     11937      8576     11940      8576     11943      8576     11946      8576
     11949      8576     11952      8576     11955      8576     11958      8576
     11961      8576     11964      8576     11967      8576     11970      8576
     11973      8576     11976      8576     11979      8576     11982      8576
     11985      8576     11988      8576     11991      8576     11994      8576
     11997      8576     12000      8576     12003      8576     12006      8576
     12009      8576     12012      8576     12015      8576     12018      8576
     12021      8576     12024      8576     12027      8576     12030      8576
     12033      8576     12036      8576     12039      8576     12042      8576
     12045      8576     12048      8576     12051      8576     12054      8576
     12057      8576     12060      8576     12063      8576     12066      8576
     12069      8576     12072      8576     12075      8576     12078      8576
     12081      8576     12084      8576     12087      8576     12090      8576
     12093      8576     12096      8576     12099      8576     12102      8576
     12105      8576     12108      8576     12111      8576     12114      8576
     12117      8576     12120      8576     12123      8576     12126      8576
     12129      8576     12132      8576     12135      8576     12138      8576
     12141      8576     12144      8576     12147      8576     12150      8576
     12153      8576     12156      8576     12159      8576     12162      8576
     12165      8576     12168      8576     12171      8576     12174      8576
     12177      8576     12180      8576     12183      8576     12186      8576
     12189      8576     12192      8576     12195      8576     12198      8576
     12201      8576     12204      8576     12207      8576     12210      8576
     12213      8576     12216      8576     12219      8576     12222      8576
     12225      8576     12228      8576     12231      8576     12234      8576
     12237      8576     12240      8576     12243      8576     12246      8576
     12249      8576     12252      8576     12255      8576     12258      8576
     12261      8576     12264      8576     12267      8576     12270      8576
     12273      8576     12276      8576     12279      8576     12282      8576
     12285      8576     12288      8576     12291      8576     12294      8576
     12297      8576     12300      8576     12303      8576     12306      8576
     12309      8576     12312      8576     12315      8576     12318      8576
     12321      8576     12324      8576     12327      8576     12330      8576
     12333      8576     12336      8576     12339      8576     12342      8576
     12345      8576     12348      8576     12351      8576     12354      8576
     12357      8576     12360      8576     12363      8576     12366      8576
     12369      8576     12372      8576     12375      8576     12378      8576
     12381      8576     12384      8576     12387      8576     12390      8576
     12393      8576     12396      8576     12399      8576     12402      8576
     12405      8576     12408      8576     12411      8576     12414      8576
     12417      8576     12420      8576     12423      8576     12426      8576
     12429      8576     12432      8576     12435      8576     12438      8576
     12441      8576     12444      8576     12447      8576     12450      8576
     12453      8576     12456      8576     12459      8576     12462      8576
     12465      8576     12468      8576     12471      8576     12474      8576
     12477      8576     12480      8576     12483      8576     12486      8576
     12489      8576     12492      8576     12495      8576     12498      8576
     12501      8576     12504      8576     12507      8576     12510      8576
     12513      8576     12516      8576     12519      8576     12522      8576
     12525      8576     12528      8576     12531      8576     12534      8576
     12537      8576     12540      8576     12543      8576     12546      8576
     12549      8576     12552      8576     12555      8576     12558      8576
     12561      8576     12564      8576     12567      8576     12570      8576
     12573      8576     12576      8576     12579      8576     12582      8576
     12585      8576     12588      8576     12591      8576     12594      8576
     12597      8576     12600      8576     12603      8576     12606      8576
     12609      8576     12612      8576     12615      8576     12618      8576
     12621      8576     12624      8576     12627      8576     12630      8576
     12633      8576     12636      8576     12639      8576     12642      8576
     12645      8576     12648      8576     12651      8576     12654      8576
     12657      8576     12660      8576     12663      8576     12666      8576
     12669      8576     12672      8576     12675      8576     12678      8576
     12681      8576     12684      8576     12687      8576     12690      8576
     12693      8576     12696      8576     12699      8576     12702      8576
     12705      8576     12708      8576     12711      8576     12714      8576
     12717      8576     12720      8576     12723      8576     12726      8576
     12729      8576     12732      8576     12735      8576     12738      8576
     12741      8576     12744      8576     12747      8576     12750      8576
     12753      8576     12756      8576     12759      8576     12762      8576
     12765      8576     12768      8576     12771      8576     12774      8576
     12777      8576     12780      8576     12783      8576     12786      8576
     12789      8576     12792      8576     12795      8576     12798      8576
     12801      8576     12804      8576     12807      8576     12810      8576
     12813      8576     12816      8576     12819      8576     12822      8576
     12825      8576     12828      8576     12831      8576     12834      8576
     12837      8576     12840      8576     12843      8576     12846      8576
     12849      8576     12852      8576     12855      8576     12858      8576
     12861      8576     12864      8576     12867      8576     12870      8576
     12873      8576     12876      8576     12879      8576     12882      8576
     12885      8576     12888      8576     12891      8576     12894      8576
     12897      8576     12900      8576     12903      8576     12906      8576
     12909      8576     12912      8576     12915      8576     12918      8576
     12921      8576     12924      8576     12927      8576     12930      8576
     12933      8576     12936      8576     12939      8576     12942      8576
     12945      8576     12948      8576     12951      8576     12954      8576
     12957      8576     12960      8576     12963      8576     12966      8576
     12969      8576     12972      8576     12975      8576     12978      8576
     12981      8576     12984      8576     12987      8576     12990      8576
     12993      8576     12996      8576     12999      8576     13002      8576
     13005      8576     13008      8576     13011      8576     13014      8576
     13017      8576     13020      8576     13023      8576     13026      8576
     13029      8576     13032      8576     13035      8576     13038      8576
     13041      8576     13044      8576     13047      8576     13050      8576
     13053      8576     13056      8576     13059      8576     13062      8576
     13065      8576     13068      8576     13071      8576     13074      8576
     13077      8576     13080      8576     13083      8576     13086      8576
     13089      8576     13092      8576     13095      8576     13098      8576
     13101      8576     13104      8576     13107      8576     13110      8576
     13113      8576     13116      8576     13119      8576     13122      8576
     13125      8576     13128      8576     13131      8576     13134      8576
     13137      8576     13140      8576     13143      8576     13146      8576
     13149      8576     13152      8576     13155      8576     13158      8576
     13161      8576     13164      8576     13167      8576     13170      8576
     13173      8576     13176      8576     13179      8576     13182      8576
     13185      8576     13188      8576     13191      8576     13194      8576
     13197      8576     13200      8576     13203      8576     13206      8576
     13209      8576     13212      8576     13215      8576     13218      8576
     13221      8576     13224      8576     13227      8576     13230      8576
     13233      8576     13236      8576     13239      8576     13242      8576
     13245      8576     13248      8576     13251      8576     13254      8576
     13257      8576     13260      8576     13263      8576     13266      8576
     13269      8576     13272      8576     13275      8576     13278      8576
     13281      8576     13284      8576     13287      8576     13290      8576
     13293      8576     13296      8576     13299      8576     13302      8576
     13305      8576     13308      8576     13311      8576     13314      8576
     13317      8576     13320      8576     13323      8576     13326      8576
     13329      8576     13332      8576     13335      8576     13338      8576
     13341      8576     13344      8576     13347      8576     13350      8576
     13353      8576     13356      8576     13359      8576     13362      8576
     13365      8576     13368      8576     13371      8576     13374      8576
     13377      8576     13380      8576     13383      8576     13386      8576
     13389      8576     13392      8576     13395      8576     13398      8576
     13401      8576     13404      8576     13407      8576     13410      8576
     13413      8576     13416      8576     13419      8576     13422      8576
     13425      8576     13428      8576     13431      8576     13434      8576
     13437      8576     13440      8576     13443      8576     13446      8576
     13449      8576     13452      8576     13455      8576     13458      8576
     13461      8576     13464      8576     13467      8576     13470      8576
     13473      8576     13476      8576     13479      8576     13482      8576
     13485      8576     13488      8576     13491      8576     13494      8576
     13497      8576     13500      8576     13503      8576     13506      8576
     13509      8576     13512      8576     13515      8576     13518      8576
     13521      8576     13524      8576     13527      8576     13530      8576
     13533      8576     13536      8576     13539      8576     13542      8576
     13545      8576     13548      8576     13551      8576     13554      8576
     13557      8576     13560      8576     13563      8576     13566      8576
     13569      8576     13572      8576     13575      8576     13578      8576
     13581      8576     13584      8576     13587      8576     13590      8576
     13593      8576     13596      8576     13599      8576     13602      8576
     13605      8576     13608      8576     13611      8576     13614      8576
     13617      8576     13620      8576     13623      8576     13626      8576
     13629      8576     13632      8576     13635      8576     13638      8576
     13641      8576     13644      8576     13647      8576     13650      8576
     13653      8576     13656      8576     13659      8576     13662      8576
     13665      8576     13668      8576     13671      8576     13674      8576
     13677      8576     13680      8576     13683      8576     13686      8576
     13689      8576     13692      8576     13695      8576     13698      8576
     13701      8576     13704      8576     13707      8576     13710      8576
     13713      8576     13716      8576     13719      8576     13722      8576
     13725      8576     13728      8576     13731      8576     13734      8576
     13737      8576     13740      8576     13743      8576     13746      8576
     13749      8576     13752      8576     13755      8576     13758      8576
     13761      8576     13764      8576     13767      8576     13770      8576
     13773      8576     13776      8576     13779      8576     13782      8576
     13785      8576     13788      8576     13791      8576     13794      8576
     13797      8576     13800      8576     13803      8576     13806      8576
     13809      8576     13812      8576     13815      8576     13818      8576
     13821      8576     13824      8576     13827      8576     13830      8576
     13833      8576     13836      8576     13839      8576     13842      8576
     13845      8576     13848      8576     13851      8576     13854      8576
     13857      8576     13860      8576     13863      8576     13866      8576
     13869      8576     13872      8576     13875      8576     13878      8576
     13881      8576     13884      8576     13887      8576     13890      8576
     13893      8576     13896      8576     13899      8576     13902      8576
     13905      8576     13908      8576     13911      8576     13914      8576
     13917      8576     13920      8576     13923      8576     13926      8576
     13929      8576     13932      8576     13935      8576     13938      8576
     13941      8576     13944      8576     13947      8576     13950      8576
     13953      8576     13956      8576     13959      8576     13962      8576
     13965      8576     13968      8576     13971      8576     13974      8576
     13977      8576     13980      8576     13983      8576     13986      8576
     13989      8576     13992      8576     13995      8576     13998      8576
     14001      8576     14004      8576     14007      8576     14010      8576
     14013      8576     14016      8576     14019      8576     14022      8576
     14025      8576     14028      8576     14031      8576     14034      8576
     14037      8576     14040      8576     14043      8576     14046      8576
     14049      8576     14052      8576     14055      8576     14058      8576
     14061      8576     14064      8576     14067      8576     14070      8576
     14073      8576     14076      8576     14079      8576     14082      8576
     14085      8576     14088      8576     14091      8576     14094      8576
     14097      8576     14100      8576     14103      8576     14106      8576
     14109      8576     14112      8576     14115      8576     14118      8576
     14121      8576     14124      8576     14127      8576     14130      8576
     14133      8576     14136      8576     14139      8576     14142      8576
     14145      8576     14148      8576     14151      8576     14154      8576
     14157      8576     14160      8576     14163      8576     14166      8576
     14169      8576     14172      8576     14175      8576     14178      8576
     14181      8576     14184      8576     14187      8576     14190      8576
     14193      8576     14196      8576     14199      8576     14202      8576
     14205      8576     14208      8576     14211      8576     14214      8576
     14217      8576     14220      8576     14223      8576     14226      8576
     14229      8576     14232      8576     14235      8576     14238      8576
     14241      8576     14244      8576     14247      8576     14250      8576
     14253      8576     14256      8576     14259      8576     14262      8576
     14265      8576     14268      8576     14271      8576     14274      8576
     14277      8576     14280      8576     14283      8576     14286      8576
     14289      8576     14292      8576     14295      8576     14298      8576
     14301      8576     14304      8576     14307      8576     14310      8576
     14313      8576     14316      8576     14319      8576     14322      8576
     14325      8576     14328      8576     14331      8576     14334      8576
     14337      8576     14340      8576     14343      8576     14346      8576
     14349      8576     14352      8576     14355      8576     14358      8576
     14361      8576     14364      8576     14367      8576     14370      8576
     14373      8576     14376      8576     14379      8576     14382      8576
     14385      8576     14388      8576     14391      8576     14394      8576
     14397      8576     14400      8576     14403      8576     14406      8576
     14409      8576     14412      8576     14415      8576     14418      8576
     14421      8576     14424      8576     14427      8576     14430      8576
     14433      8576     14436      8576     14439      8576     14442      8576
     14445      8576     14448      8576     14451      8576     14454      8576
     14457      8576     14460      8576     14463      8576     14466      8576
     14469      8576     14472      8576     14475      8576     14478      8576
     14481      8576     14484      8576     14487      8576     14490      8576
     14493      8576     14496      8576     14499      8576     14502      8576
     14505      8576     14508      8576     14511      8576     14514      8576
     14517      8576     14520      8576     14523      8576     14526      8576
     14529      8576     14532      8576     14535      8576     14538      8576
     14541      8576     14544      8576     14547      8576     14550      8576
     14553      8576     14556      8576     14559      8576     14562      8576
     14565      8576     14568      8576     14571      8576     14574      8576
     14577      8576     14580      8576     14583      8576     14586      8576
     14589      8576     14592      8576     14595      8576     14598      8576
     14601      8576     14604      8576     14607      8576     14610      8576
     14613      8576     14616      8576     14619      8576     14622      8576
     14625      8576     14628      8576     14631      8576     14634      8576
     14637      8576     14640      8576     14643      8576     14646      8576
     14649      8576     14652      8576     14655      8576     14658      8576
     14661      8576     14664      8576     14667      8576     14670      8576
     14673      8576     14676      8576     14679      8576     14682      8576
     14685      8576     14688      8576     14691      8576     14694      8576
     14697      8576     14700      8576     14703      8576     14706      8576
     14709      8576     14712      8576     14715      8576     14718      8576
     14721      8576     14724      8576     14727      8576     14730      8576
     14733      8576     14736      8576     14739      8576     14742      8576
     14745      8576     14748      8576     14751      8576     14754      8576
     14757      8576     14760      8576     14763      8576     14766      8576
     14769      8576     14772      8576     14775      8576     14778      8576
     14781      8576     14784      8576     14787      8576     14790      8576
     14793      8576     14796      8576     14799      8576     14802      8576
     14805      8576     14808      8576     14811      8576     14814      8576
     14817      8576     14820      8576     14823      8576     14826      8576
     14829      8576     14832      8576     14835      8576     14838      8576
     14841      8576     14844      8576     14847      8576     14850      8576
     14853      8576     14856      8576     14859      8576     14862      8576
     14865      8576     14868      8576     14871      8576     14874      8576
     14877      8576     14880      8576     14883      8576     14886      8576
     14889      8576     14892      8576     14895      8576     14898      8576
     14901      8576     14904      8576     14907      8576     14910      8576
     14913      8576     14916      8576     14919      8576     14922      8576
     14925      8576     14928      8576     14931      8576     14934      8576
     14937      8576     14940      8576     14943      8576     14946      8576
     14949      8576     14952      8576     14955      8576     14958      8576
     14961      8576     14964      8576     14967      8576     14970      8576
     14973      8576     14976      8576     14979      8576     14982      8576
     14985      8576     14988      8576     14991      8576     14994      8576
     14997      8576     15000      8576     15003      8576     15006      8576
     15009      8576     15012      8576     15015      8576     15018      8576
     15021      8576     15024      8576     15027      8576     15030      8576
     15033      8576     15036      8576     15039      8576     15042      8576
     15045      8576     15048      8576     15051      8576     15054      8576
     15057      8576     15060      8576     15063      8576     15066      8576
     15069      8576     15072      8576     15075      8576     15078      8576
     15081      8576     15084      8576     15087      8576     15090      8576
     15093      8576     15096      8576     15099      8576     15102      8576
     15105      8576     15108      8576     15111      8576     15114      8576
     15117      8576     15120      8576     15123      8576     15126      8576
     15129      8576     15132      8576     15135      8576     15138      8576
     15141      8576     15144      8576     15147      8576     15150      8576
     15153      8576     15156      8576     15159      8576     15162      8576
     15165      8576     15168      8576     15171      8576     15174      8576
     15177      8576     15180      8576     15183      8576     15186      8576
     15189      8576     15192      8576     15195      8576     15198      8576
     15201      8576     15204      8576     15207      8576     15210      8576
     15213      8576     15216      8576     15219      8576     15222      8576
     15225      8576     15228      8576     15231      8576     15234      8576
     15237      8576     15240      8576     15243      8576     15246      8576
     15249      8576     15252      8576     15255      8576     15258      8576
     15261      8576     15264      8576     15267      8576     15270      8576
     15273      8576     15276      8576     15279      8576     15282      8576
     15285      8576     15288      8576     15291      8576     15294      8576
     15297      8576     15300      8576     15303      8576     15306      8576
     15309      8576     15312      8576     15315      8576     15318      8576
     15321      8576     15324      8576     15327      8576     15330      8576
     15333      8576     15336      8576     15339      8576     15342      8576
     15345      8576     15348      8576     15351      8576     15354      8576
     15357      8576     15360      8576     15363      8576     15366      8576
     15369      8576     15372      8576     15375      8576     15378      8576
     15381      8576     15384      8576     15387      8576     15390      8576
     15393      8576     15396      8576     15399      8576     15402      8576
     15405      8576     15408      8576     15411      8576     15414      8576
     15417      8576     15420      8576     15423      8576     15426      8576
     15429      8576     15432      8576     15435      8576     15438      8576
     15441      8576     15444      8576     15447      8576     15450      8576
     15453      8576     15456      8576     15459      8576     15462      8576
     15465      8576     15468      8576     15471      8576     15474      8576
     15477      8576     15480      8576     15483      8576     15486      8576
     15489      8576     15492      8576     15495      8576     15498      8576
     15501      8576     15504      8576     15507      8576     15510      8576
     15513      8576     15516      8576     15519      8576     15522      8576
     15525      8576     15528      8576     15531      8576     15534      8576
     15537      8576     15540      8576     15543      8576     15546      8576
     15549      8576     15552      8576     15555      8576     15558      8576
     15561      8576     15564      8576     15567      8576     15570      8576
     15573      8576     15576      8576     15579      8576     15582      8576
     15585      8576     15588      8576     15591      8576     15594      8576
     15597      8576     15600      8576     15603      8576     15606      8576
     15609      8576     15612      8576     15615      8576     15618      8576
     15621      8576     15624      8576     15627      8576     15630      8576
     15633      8576     15636      8576     15639      8576     15642      8576
     15645      8576     15648      8576     15651      8576     15654      8576
     15657      8576     15660      8576     15663      8576     15666      8576
     15669      8576     15672      8576     15675      8576     15678      8576
     15681      8576     15684      8576     15687      8576     15690      8576
     15693      8576     15696      8576     15699      8576     15702      8576
     15705      8576     15708      8576     15711      8576     15714      8576
     15717      8576     15720      8576     15723      8576     15726      8576
     15729      8576     15732      8576     15735      8576     15738      8576
     15741      8576     15744      8576     15747      8576     15750      8576
     15753      8576     15756      8576     15759      8576     15762      8576
     15765      8576     15768      8576     15771      8576     15774      8576
     15777      8576     15780      8576     15783      8576     15786      8576
     15789      8576     15792      8576     15795      8576     15798      8576
     15801      8576     15804      8576     15807      8576     15810      8576
     15813      8576     15816      8576     15819      8576     15822      8576
     15825      8576     15828      8576     15831      8576     15834      8576
     15837      8576     15840      8576     15843      8576     15846      8576
     15849      8576     15852      8576     15855      8576     15858      8576
     15861      8576     15864      8576     15867      8576     15870      8576
     15873      8576     15876      8576     15879      8576     15882      8576
     15885      8576     15888      8576     15891      8576     15894      8576
     15897      8576     15900      8576     15903      8576     15906      8576
     15909      8576     15912      8576     15915      8576     15918      8576
     15921      8576     15924      8576     15927      8576     15930      8576
     15933      8576     15936      8576     15939      8576     15942      8576
     15945      8576     15948      8576     15951      8576     15954      8576
     15957      8576     15960      8576     15963      8576     15966      8576
     15969      8576     15972      8576     15975      8576     15978      8576
     15981      8576     15984      8576     15987      8576     15990      8576
     15993      8576     15996      8576     15999      8576     16002      8576
     16005      8576     16008      8576     16011      8576     16014      8576
     16017      8576     16020      8576     16023      8576     16026      8576
     16029      8576     16032      8576     16035      8576     16038      8576
     16041      8576     16044      8576     16047      8576     16050      8576
     16053      8576     16056      8576     16059      8576     16062      8576
     16065      8576     16068      8576     16071      8576     16074      8576
     16077      8576     16080      8576     16083      8576     16086      8576
     16089      8576     16092      8576     16095      8576     16098      8576
     16101      8576     16104      8576     16107      8576     16110      8576
     16113      8576     16116      8576     16119      8576     16122      8576
     16125      8576     16128      8576     16131      8576     16134      8576
     16137      8576     16140      8576     16143      8576     16146      8576
     16149      8576     16152      8576     16155      8576     16158      8576
     16161      8576     16164      8576     16167      8576     16170      8576
     16173      8576     16176      8576     16179      8576     16182      8576
     16185      8576     16188      8576     16191      8576     16194      8576
     16197      8576     16200      8576     16203      8576     16206      8576
     16209      8576     16212      8576     16215      8576     16218      8576
     16221      8576     16224      8576     16227      8576     16230      8576
     16233      8576     16236      8576     16239      8576     16242      8576
     16245      8576     16248      8576     16251      8576     16254      8576
     16257      8576     16260      8576     16263      8576     16266      8576
     16269      8576     16272      8576     16275      8576     16278      8576
     16281      8576     16284      8576     16287      8576     16290      8576
     16293      8576     16296      8576     16299      8576     16302      8576
     16305      8576     16308      8576     16311      8576     16314      8576
     16317      8576     16320      8576     16323      8576     16326      8576
     16329      8576     16332      8576     16335      8576     16338      8576
     16341      8576     16344      8576     16347      8576     16350      8576
     16353      8576     16356      8576     16359      8576     16362      8576
     16365      8576     16368      8576     16371      8576     16374      8576
     16377      8576     16380      8576     16383      8576     16386      8576
     16389      8576     16392      8576     16395      8576     16398      8576
     16401      8576     16404      8576     16407      8576     16410      8576
     16413      8576     16416      8576     16419      8576     16422      8576
     16425      8576     16428      8576     16431      8576     16434      8576
     16437      8576     16440      8576     16443      8576     16446      8576
     16449      8576     16452      8576     16455      8576     16458      8576
     16461      8576     16464      8576     16467      8576     16470      8576
     16473      8576     16476      8576     16479      8576     16482      8576
     16485      8576     16488      8576     16491      8576     16494      8576
     16497      8576     16500      8576     16503      8576     16506      8576
     16509      8576     16512      8576     16515      8576     16518      8576
     16521      8576     16524      8576     16527      8576     16530      8576
     16533      8576     16536      8576     16539      8576     16542      8576
     16545      8576     16548      8576     16551      8576     16554      8576
     16557      8576     16560      8576     16563      8576     16566      8576
     16569      8576     16572      8576     16575      8576     16578      8576
     16581      8576     16584      8576     16587      8576     16590      8576
     16593      8576     16596      8576     16599      8576     16602      8576
     16605      8576     16608      8576     16611      8576     16614      8576
     16617      8576     16620      8576     16623      8576     16626      8576
     16629      8576     16632      8576     16635      8576     16638      8576
     16641      8576     16644      8576     16647      8576     16650      8576
     16653      8576     16656      8576     16659      8576     16662      8576
     16665      8576     16668      8576     16671      8576     16674      8576
     16677      8576     16680      8576     16683      8576     16686      8576
     16689      8576     16692      8576     16695      8576     16698      8576
     16701      8576     16704      8576     16707      8576     16710      8576
     16713      8576     16716      8576     16719      8576     16722      8576
     16725      8576     16728      8576     16731      8576     16734      8576
     16737      8576     16740      8576     16743      8576     16746      8576
     16749      8576     16752      8576     16755      8576     16758      8576
     16761      8576     16764      8576     16767      8576     16770      8576
     16773      8576     16776      8576     16779      8576     16782      8576
     16785      8576     16788      8576     16791      8576     16794      8576
     16797      8576     16800      8576     16803      8576     16806      8576
     16809      8576     16812      8576     16815      8576     16818      8576
     16821      8576     16824      8576     16827      8576     16830      8576
     16833      8576     16836      8576     16839      8576     16842      8576
     16845      8576     16848      8576     16851      8576     16854      8576
     16857      8576     16860      8576     16863      8576     16866      8576
     16869      8576     16872      8576     16875      8576     16878      8576
     16881      8576     16884      8576     16887      8576     16890      8576
     16893      8576     16896      8576     16899      8576     16902      8576
     16905      8576     16908      8576     16911      8576     16914      8576
     16917      8576     16920      8576     16923      8576     16926      8576
     16929      8576     16932      8576     16935      8576     16938      8576
     16941      8576     16944      8576     16947      8576     16950      8576
     16953      8576     16956      8576     16959      8576     16962      8576
     16965      8576     16968      8576     16971      8576     16974      8576
     16977      8576     16980      8576     16983      8576     16986      8576
     16989      8576     16992      8576     16995      8576     16998      8576
     17001      8576     17004      8576     17007      8576     17010      8576
     17013      8576     17016      8576     17019      8576     17022      8576
     17025      8576     17028      8576     17031      8576     17034      8576
     17037      8576     17040      8576     17043      8576     17046      8576
     17049      8576     17052      8576     17055      8576     17058      8576
     17061      8576     17064      8576     17067      8576     17070      8576
     17073      8576     17076      8576     17079      8576     17082      8576
     17085      8576     17088      8576     17091      8576     17094      8576
     17097      8576     17100      8576     17103      8576     17106      8576
     17109      8576     17112      8576     17115      8576     17118      8576
     17121      8576     17124      8576     17127      8576     17130      8576
     17133      8576     17136      8576     17139      8576     17142      8576
     17145      8576     17148      8576     17151      8576     17154      8576
     17157      8576     17160      8576     17163      8576     17166      8576
     17169      8576     17172      8576     17175      8576     17178      8576
     17181      8576     17184      8576     17187      8576     17190      8576
     17193      8576     17196      8576     17199      8576     17202      8576
     17205      8576     17208      8576     17211      8576     17214      8576
     17217      8576     17220      8576     17223      8576     17226      8576
     17229      8576     17232      8576     17235      8576     17238      8576
     17241      8576     17244      8576     17247      8576     17250      8576
     17253      8576     17256      8576     17259      8576     17262      8576
     17265      8576     17268      8576     17271      8576     17274      8576
     17277      8576     17280      8576     17283      8576     17286      8576
     17289      8576     17292      8576     17295      8576     17298      8576
     17301      8576     17304      8576     17307      8576     17310      8576
     17313      8576     17316      8576     17319      8576     17322      8576
     17325      8576     17328      8576     17331      8576     17334      8576
     17337      8576     17340      8576     17343      8576     17346      8576
     17349      8576     17352      8576     17355      8576     17358      8576
     17361      8576     17364      8576     17367      8576     17370      8576
     17373      8576     17376      8576     17379      8576     17382      8576
     17385      8576     17388      8576     17391      8576     17394      8576
     17397      8576     17400      8576     17403      8576     17406      8576
     17409      8576     17412      8576     17415      8576     17418      8576
     17421      8576     17424      8576     17427      8576     17430      8576
     17433      8576     17436      8576     17439      8576     17442      8576
     17445      8576     17448      8576     17451      8576     17454      8576
     17457      8576     17460      8576     17463      8576     17466      8576
     17469      8576     17472      8576     17475      8576     17478      8576
     17481      8576     17484      8576     17487      8576     17490      8576
     17493      8576     17496      8576     17499      8576     17502      8576
     17505      8576     17508      8576     17511      8576     17514      8576
     17517      8576     17520      8576     17523      8576     17526      8576
     17529      8576     17532      8576     17535      8576     17538      8576
     17541      8576     17544      8576     17547      8576     17550      8576
     17553      8576     17556      8576     17559      8576     17562      8576
     17565      8576     17568      8576     17571      8576     17574      8576
     17577      8576     17580      8576     17583      8576     17586      8576
     17589      8576     17592      8576     17595      8576     17598      8576
     17601      8576     17604      8576     17607      8576     17610      8576
     17613      8576     17616      8576     17619      8576     17622      8576
     17625      8576     17628      8576     17631      8576     17634      8576
     17637      8576     17640      8576     17643      8576     17646      8576
     17649      8576     17652      8576     17655      8576     17658      8576
     17661      8576     17664      8576     17667      8576     17670      8576
     17673      8576     17676      8576     17679      8576     17682      8576
     17685      8576     17688      8576     17691      8576     17694      8576
     17697      8576     17700      8576     17703      8576     17706      8576
     17709      8576     17712      8576     17715      8576     17718      8576
     17721      8576     17724      8576     17727      8576     17730      8576
     17733      8576     17736      8576     17739      8576     17742      8576
     17745      8576     17748      8576     17751      8576     17754      8576
     17757      8576     17760      8576     17763      8576     17766      8576
     17769      8576     17772      8576     17775      8576     17778      8576
     17781      8576     17784      8576     17787      8576     17790      8576
     17793      8576     17796      8576     17799      8576     17802      8576
     17805      8576     17808      8576     17811      8576     17814      8576
     17817      8576     17820      8576     17823      8576     17826      8576
     17829      8576     17832      8576     17835      8576     17838      8576
     17841      8576     17844      8576     17847      8576     17850      8576
     17853      8576     17856      8576     17859      8576     17862      8576
     17865      8576     17868      8576     17871      8576     17874      8576
     17877      8576     17880      8576     17883      8576     17886      8576
     17889      8576     17892      8576     17895      8576     17898      8576
     17901      8576     17904      8576     17907      8576     17910      8576
     17913      8576     17916      8576     17919      8576     17922      8576
     17925      8576     17928      8576     17931      8576     17934      8576
     17937      8576     17940      8576     17943      8576     17946      8576
     17949      8576     17952      8576     17955      8576     17958      8576
     17961      8576     17964      8576     17967      8576     17970      8576
     17973      8576     17976      8576     17979      8576     17982      8576
     17985      8576     17988      8576     17991      8576     17994      8576
     17997      8576     18000      8576     18003      8576     18006      8576
     18009      8576     18012      8576     18015      8576     18018      8576
     18021      8576     18024      8576     18027      8576     18030      8576
     18033      8576     18036      8576     18039      8576     18042      8576
     18045      8576     18048      8576     18051      8576     18054      8576
     18057      8576     18060      8576     18063      8576     18066      8576
     18069      8576     18072      8576     18075      8576     18078      8576
     18081      8576     18084      8576     18087      8576     18090      8576
     18093      8576     18096      8576     18099      8576     18102      8576
     18105      8576     18108      8576     18111      8576     18114      8576
     18117      8576     18120      8576     18123      8576     18126      8576
     18129      8576     18132      8576     18135      8576     18138      8576
     18141      8576     18144      8576     18147      8576     18150      8576
     18153      8576     18156      8576     18159      8576     18162      8576
     18165      8576     18168      8576     18171      8576     18174      8576
     18177      8576     18180      8576     18183      8576     18186      8576
     18189      8576     18192      8576     18195      8576     18198      8576
     18201      8576     18204      8576     18207      8576     18210      8576
     18213      8576     18216      8576     18219      8576     18222      8576
     18225      8576     18228      8576     18231      8576     18234      8576
     18237      8576     18240      8576     18243      8576     18246      8576
     18249      8576     18252      8576     18255      8576     18258      8576
     18261      8576     18264      8576     18267      8576     18270      8576
     18273      8576     18276      8576     18279      8576     18282      8576
     18285      8576     18288      8576     18291      8576     18294      8576
     18297      8576     18300      8576     18303      8576     18306      8576
     18309      8576     18312      8576     18315      8576     18318      8576
     18321      8576     18324      8576     18327      8576     18330      8576
     18333      8576     18336      8576     18339      8576     18342      8576
     18345      8576     18348      8576     18351      8576     18354      8576
     18357      8576     18360      8576     18363      8576     18366      8576
     18369      8576     18372      8576     18375      8576     18378      8576
     18381      8576     18384      8576     18387      8576     18390      8576
     18393      8576     18396      8576     18399      8576     18402      8576
     18405      8576     18408      8576     18411      8576     18414      8576
     18417      8576     18420      8576     18423      8576     18426      8576
     18429      8576     18432      8576     18435      8576     18438      8576
     18441      8576     18444      8576     18447      8576     18450      8576
     18453      8576     18456      8576     18459      8576     18462      8576
     18465      8576     18468      8576     18471      8576     18474      8576
     18477      8576     18480      8576     18483      8576     18486      8576
     18489      8576     18492      8576     18495      8576     18498      8576
     18501      8576     18504      8576     18507      8576     18510      8576
     18513      8576     18516      8576     18519      8576     18522      8576
     18525      8576     18528      8576     18531      8576     18534      8576
     18537      8576     18540      8576     18543      8576     18546      8576
     18549      8576     18552      8576     18555      8576     18558      8576
     18561      8576     18564      8576     18567      8576     18570      8576
     18573      8576     18576      8576     18579      8576     18582      8576
     18585      8576     18588      8576     18591      8576     18594      8576
     18597      8576     18600      8576     18603      8576     18606      8576
     18609      8576     18612      8576     18615      8576     18618      8576
     18621      8576     18624      8576     18627      8576     18630      8576
     18633      8576     18636      8576     18639      8576     18642      8576
     18645      8576     18648      8576     18651      8576     18654      8576
     18657      8576     18660      8576     18663      8576     18666      8576
     18669      8576     18672      8576     18675      8576     18678      8576
     18681      8576     18684      8576     18687      8576     18690      8576
     18693      8576     18696      8576     18699      8576     18702      8576
     18705      8576     18708      8576     18711      8576     18714      8576
     18717      8576     18720      8576     18723      8576     18726      8576
     18729      8576     18732      8576     18735      8576     18738      8576
     18741      8576     18744      8576     18747      8576     18750      8576
     18753      8576     18756      8576     18759      8576     18762      8576
     18765      8576     18768      8576     18771      8576     18774      8576
     18777      8576     18780      8576     18783      8576     18786      8576
     18789      8576     18792      8576     18795      8576     18798      8576
     18801      8576     18804      8576     18807      8576     18810      8576
     18813      8576     18816      8576     18819      8576     18822      8576
     18825      8576     18828      8576     18831      8576     18834      8576
     18837      8576     18840      8576     18843      8576     18846      8576
     18849      8576     18852      8576     18855      8576     18858      8576
     18861      8576     18864      8576     18867      8576     18870      8576
     18873      8576     18876      8576     18879      8576     18882      8576
     18885      8576     18888      8576     18891      8576     18894      8576
     18897      8576     18900      8576     18903      8576     18906      8576
     18909      8576     18912      8576     18915      8576     18918      8576
     18921      8576     18924      8576     18927      8576     18930      8576
     18933      8576     18936      8576     18939      8576     18942      8576
     18945      8576     18948      8576     18951      8576     18954      8576
     18957      8576     18960      8576     18963      8576     18966      8576
     18969      8576     18972      8576     18975      8576     18978      8576
     18981      8576     18984      8576     18987      8576     18990      8576
     18993      8576     18996      8576     18999      8576     19002      8576
     19005      8576     19008      8576     19011      8576     19014      8576
     19017      8576     19020      8576     19023      8576     19026      8576
     19029      8576     19032      8576     19035      8576     19038      8576
     19041      8576     19044      8576     19047      8576     19050      8576
     19053      8576     19056      8576     19059      8576     19062      8576
     19065      8576     19068      8576     19071      8576     19074      8576
     19077      8576     19080      8576     19083      8576     19086      8576
     19089      8576     19092      8576     19095      8576     19098      8576
     19101      8576     19104      8576     19107      8576     19110      8576
     19113      8576     19116      8576     19119      8576     19122      8576
     19125      8576     19128      8576     19131      8576     19134      8576
     19137      8576     19140      8576     19143      8576     19146      8576
     19149      8576     19152      8576     19155      8576     19158      8576
     19161      8576     19164      8576     19167      8576     19170      8576
     19173      8576     19176      8576     19179      8576     19182      8576
     19185      8576     19188      8576     19191      8576     19194     19193
     19197     19193     19200     19193     19203     19193     19206     19193
     19209     19193     19212     19193     19215     19193     19218     19193
     19221     19193     19224     19193     19227     19193     19230     19193
     19233     19193     19236     19193     19239     19193     19242     19193
     19245     19193     19248     19193     19251     19193     19254     19193
     19257     19193     19260     19193     19263     19193     19266     19193
     19269     19193     19272     19193     19275     19193     19278     19193
     19281     19193     19284     19193     19287     19193     19290     19193
     19293     19193     19296     19193     19299     19193     19302     19193
     19305     19193     19308     19193     19311     19193     19314     19193
     19317     19193     19320     19193     19323     19193     19326     19193
     19329     19193     19332     19193     19335     19193     19338     19193
     19341     19193     19344     19193     19347     19193     19350     19193
     19353     19193     19356     19193     19359     19193     19362     19193
     19365     19193     19368     19193     19371     19193     19374     19193
     19377     19193     19380     19193     19383     19193     19386     19193
     19389     19193     19392     19193     19395     19193     19398     19193
     19401     19193     19404     19193     19407     19193     19410     19193
     19413     19193     19416     19193     19419     19193     19422     19193
     19425     19193     19428     19193     19431     19193     19434     19193
     19437     19193     19440     19193     19443     19193     19446     19193
     19449     19193     19452     19193     19455     19193     19458     19193
     19461     19193     19464     19193     19467     19193     19470     19193
     19473     19193     19476     19193     19479     19193     19482     19193
     19485     19193     19488     19193     19491     19193     19494     19193
     19497     19193     19500     19193     19503     19193     19506     19193
     19509     19193     19512     19193     19515     19193     19518     19193
     19521     19193     19524     19193     19527     19193     19530     19193
     19533     19193     19536     19193     19539     19193     19542     19193
     19545     19193     19548     19193     19551     19193     19554     19193
     19557     19193     19560     19193     19563     19193     19566     19193
     19569     19193     19572     19193     19575     19193     19578     19193
     19581     19193     19584     19193     19587     19193     19590     19193
     19593     19193     19596     19193     19599     19193     19602     19193
     19605     19193     19608     19193     19611     19193     19614     19193
     19617     19193     19620     19193     19623     19193     19626     19193
     19629     19193     19632     19193     19635     19193     19638     19193
     19641     19193     19644     19193     19647     19193     19650     19193
     19653     19193     19656     19193     19659     19193     19662     19193
     19665     19193     19668     19193     19671     19193     19674     19193
     19677     19193     19680     19193     19683     19193     19686     19193
     19689     19193     19692     19193     19695     19193     19698     19193
     19701     19193     19704     19193     19707     19193     19710     19193
     19713     19193     19716     19193     19719     19193     19722     19193
     19725     19193     19728     19193     19731     19193     19734     19193
     19737     19193     19740     19193     19743     19193     19746     19193
     19749     19193     19752     19193     19755     19193     19758     19193
     19761     19193     19764     19193     19767     19193     19770     19193
     19773     19193     19776     19193     19779     19193     19782     19193
     19785     19193     19788     19193     19791     19193     19794     19193
     19797     19193     19800     19193     19803     19193     19806     19193
     19809     19193     19812     19193     19815     19193     19818     19193
     19821     19193     19824     19193     19827     19193     19830     19193
     19833     19193     19836     19193     19839     19193     19842     19193
     19845     19193     19848     19193     19851     19193     19854     19193
     19857     19193     19860     19193     19863     19193     19866     19193
     19869     19193     19872     19193     19875     19193     19878     19193
     19881     19193     19884     19193     19887     19193     19890     19193
     19893     19193     19896     19193     19899     19193     19902     19193
     19905     19193     19908     19193     19911     19193     19914     19193
     19917     19193     19920     19193     19923     19193     19926     19193
     19929     19193     19932     19193     19935     19193     19938     19193
     19941     19193     19944     19193     19947     19193     19950     19193
     19953     19193     19956     19193     19959     19193     19962     19193
     19965     19193     19968     19193     19971     19193     19974     19193
     19977     19193     19980     19193     19983     19193     19986     19193
     19989     19193     19992     19193     19995     19193     19998     19193
     20001     19193     20004     19193     20007     19193     20010     19193
     20013     19193     20016     19193     20019     19193     20022     19193
     20025     19193     20028     19193     20031     19193     20034     19193
     20037     19193     20040     19193     20043     19193     20046     19193
     20049     19193     20052     19193     20055     19193     20058     19193
     20061     19193     20064     19193     20067     19193     20070     19193
     20073     19193     20076     19193     20079     19193     20082     19193
     20085     19193     20088     19193     20091     19193     20094     19193
     20097     19193     20100     19193     20103     19193     20106     19193
     20109     19193     20112     19193     20115     19193     20118     19193
     20121     19193     20124     19193     20127     19193     20130     19193
     20133     19193     20136     19193     20139     19193     20142     19193
     20145     19193     20148     19193     20151     19193     20154     19193
     20157     19193     20160     19193     20163     19193     20166     19193
     20169     19193     20172     19193     20175     19193     20178     19193
     20181     19193     20184     19193     20187     19193     20190     19193
     20193     19193     20196     19193     20199     19193     20202     19193
     20205     19193     20208     19193     20211     19193     20214     19193
     20217     19193     20220     19193     20223     19193     20226     19193
     20229     19193     20232     19193     20235     19193     20238     19193
     20241     19193     20244     19193     20247     19193     20250     19193
     20253     19193     20256     19193     20259     19193     20262     19193
     20265     19193     20268     19193     20271     19193     20274     19193
     20277     19193     20280     19193     20283     19193     20286     19193
     20289     19193     20292     19193     20295     19193     20298     19193
     20301     19193     20304     19193     20307     19193     20310     19193
     20313     19193     20316     19193     20319     19193     20322     19193
     20325     19193     20328     19193     20331     19193     20334     19193
     20337     19193     20340     19193     20343     19193     20346     19193
     20349     19193     20352     19193     20355     19193     20358     19193
     20361     19193     20364     19193     20367     19193     20370     19193
     20373     19193     20376     19193     20379     19193     20382     19193
     20385     19193     20388     19193     20391     19193     20394     19193
     20397     19193     20400     19193     20403     19193     20406     19193
     20409     19193     20412     19193     20415     19193     20418     19193
     20421     19193     20424     19193     20427     19193     20430     19193
     20433     19193     20436     19193     20439     19193     20442     19193
     20445     19193     20448     19193     20451     19193     20454     19193
     20457     19193     20460     19193     20463     19193     20466     19193
     20469     19193     20472     19193     20475     19193     20478     19193
     20481     19193     20484     19193     20487     19193     20490     19193
     20493     19193     20496     19193     20499     19193     20502     19193
     20505     19193     20508     19193     20511     19193     20514     19193
     20517     19193     20520     19193     20523     19193     20526     19193
     20529     19193     20532     19193     20535     19193     20538     19193
     20541     19193     20544     19193     20547     19193     20550     19193
     20553     19193     20556     19193     20559     19193     20562     19193
     20565     19193     20568     19193     20571     19193     20574     19193
     20577     19193     20580     19193     20583     19193     20586     19193
     20589     19193     20592     19193     20595     19193     20598     19193
     20601     19193     20604     19193     20607     19193     20610     19193
     20613     19193     20616     19193     20619     19193     20622     19193
     20625     19193     20628     19193     20631     19193     20634     19193
     20637     19193     20640     19193     20643     19193     20646     19193
     20649     19193     20652     19193     20655     19193     20658     19193
     20661     19193     20664     19193     20667     19193     20670     19193
     20673     19193     20676     19193     20679     19193     20682     19193
     20685     19193     20688     19193     20691     19193     20694     19193
     20697     19193     20700     19193     20703     19193     20706     19193
     20709     19193     20712     19193     20715     19193     20718     19193
     20721     19193     20724     19193     20727     19193     20730     19193
     20733     19193     20736     19193     20739     19193     20742     19193
     20745     19193     20748     19193     20751     19193     20754     19193
     20757     19193     20760     19193     20763     19193     20766     19193
     20769     19193     20772     19193     20775     19193     20778     19193
     20781     19193     20784     19193     20787     19193     20790     19193
     20793     19193     20796     19193     20799     19193     20802     19193
     20805     19193     20808     19193     20811     19193     20814     19193
     20817     19193     20820     19193     20823     19193     20826     19193
     20829     19193     20832     19193     20835     19193     20838     19193
     20841     19193     20844     19193     20847     19193     20850     19193
     20853     19193     20856     19193     20859     19193     20862     19193
     20865     19193     20868     19193     20871     19193     20874     19193
     20877     19193     20880     19193     20883     19193     20886     19193
     20889     19193     20892     19193     20895     19193     20898     19193
     20901     19193     20904     19193     20907     19193     20910     19193
     20913     19193     20916     19193     20919     19193     20922     19193
     20925     19193     20928     19193     20931     19193     20934     19193
     20937     19193     20940     19193     20943     19193     20946     19193
     20949     19193     20952     19193     20955     19193     20958     19193
     20961     19193     20964     19193     20967     19193     20970     19193
     20973     19193     20976     19193     20979     19193     20982     19193
     20985     19193     20988     19193     20991     19193     20994     19193
     20997     19193     21000     19193     21003     19193     21006     19193
     21009     19193     21012     19193     21015     19193     21018     19193
     21021     19193     21024     19193     21027     19193     21030     19193
     21033     19193     21036     19193     21039     19193     21042     19193
     21045     19193     21048     19193     21051     19193     21054     19193
     21057     19193     21060     19193     21063     19193     21066     19193
     21069     19193     21072     19193     21075     19193     21078     19193
     21081     19193     21084     19193     21087     19193     21090     19193
     21093     19193     21096     19193     21099     19193     21102     19193
     21105     19193     21108     19193     21111     19193     21114     19193
     21117     19193     21120     19193     21123     19193     21126     19193
     21129     19193     21132     19193     21135     19193     21138     19193
     21141     19193     21144     19193     21147     19193     21150     19193
     21153     19193     21156     19193     21159     19193     21162     19193
     21165     19193     21168     19193     21171     19193     21174     19193
     21177     19193     21180     19193     21183     19193     21186     19193
     21189     19193     21192     19193     21195     19193     21198     19193
     21201     19193     21204     19193     21207     19193     21210     19193
     21213     19193     21216     19193     21219     19193     21222     19193
     21225     19193     21228     19193     21231     19193     21234     19193
     21237     19193     21240     19193     21243     19193     21246     19193
     21249     19193     21252     19193     21255     19193     21258     19193
     21261     19193     21264     19193     21267     19193     21270     19193
     21273     19193     21276     19193     21279     19193     21282     19193
     21285     19193     21288     19193     21291     19193     21294     19193
     21297     19193     21300     19193     21303     19193     21306     19193
     21309     19193     21312     19193     21315     19193     21318     19193
     21321     19193     21324     19193     21327     19193     21330     19193
     21333     19193     21336     19193     21339     19193     21342     19193
     21345     19193     21348     19193     21351     19193     21354     19193
     21357     19193     21360     19193     21363     19193     21366     19193
     21369     19193     21372     19193     21375     19193     21378     19193
     21381     19193     21384     19193     21387     19193     21390     19193
     21393     19193     21396     19193     21399     19193     21402     19193
     21405     19193     21408     19193     21411     19193     21414     19193
     21417     19193     21420     19193     21423     19193     21426     19193
     21429     19193     21432     19193     21435     19193     21438     19193
     21441     19193     21444     19193     21447     19193     21450     19193
     21453     19193     21456     19193     21459     19193     21462     19193
     21465     19193     21468     19193     21471     19193     21474     19193
     21477     19193     21480     19193     21483     19193     21486     19193
     21489     19193     21492     19193     21495     19193     21498     19193
     21501     19193     21504     19193     21507     19193     21510     19193
     21513     19193     21516     19193     21519     19193     21522     19193
     21525     19193     21528     19193     21531     19193     21534     19193
     21537     19193     21540     19193     21543     19193     21546     19193
     21549     19193     21552     19193     21555     19193     21558     19193
     21561     19193     21564     19193     21567     19193     21570     19193
     21573     19193     21576     19193     21579     19193     21582     19193
     21585     19193     21588     19193     21591     19193     21594     19193
     21597     19193     21600     19193     21603     19193     21606     19193
     21609     19193     21612     19193     21615     19193     21618     19193
     21621     19193     21624     19193     21627     19193     21630     19193
     21633     19193     21636     19193     21639     19193     21642     19193
     21645     19193     21648     19193     21651     19193     21654     19193
     21657     19193     21660     19193     21663     19193     21666     19193
     21669     19193     21672     19193     21675     19193     21678     19193
     21681     19193     21684     19193     21687     19193     21690     19193
     21693     19193     21696     19193     21699     19193     21702     19193
     21705     19193     21708     19193     21711     19193     21714     19193
     21717     19193     21720     19193     21723     19193     21726     19193
     21729     19193     21732     19193     21735     19193     21738     19193
     21741     19193     21744     19193     21747     19193     21750     19193
     21753     19193     21756     19193     21759     19193     21762     19193
     21765     19193     21768     19193     21771     19193     21774     19193
     21777     19193     21780     19193     21783     19193     21786     19193
     21789     19193     21792     19193     21795     19193     21798     19193
     21801     19193     21804     19193     21807     19193     21810     19193
     21813     19193     21816     19193     21819     19193     21822     19193
     21825     19193     21828     19193     21831     19193     21834     19193
     21837     19193     21840     19193     21843     19193     21846     19193
     21849     19193     21852     19193     21855     19193     21858     19193
     21861     19193     21864     19193     21867     19193     21870     19193
     21873     19193     21876     19193     21879     19193     21882     19193
     21885     19193     21888     19193     21891     19193     21894     19193
     21897     19193     21900     19193     21903     19193     21906     19193
     21909     19193     21912     19193     21915     19193     21918     19193
     21921     19193     21924     19193     21927     19193     21930     19193
     21933     19193     21936     19193     21939     19193     21942     19193
     21945     19193     21948     19193     21951     19193     21954     19193
     21957     19193     21960     19193     21963     19193     21966     19193
     21969     19193     21972     19193     21975     19193     21978     19193
     21981     19193     21984     19193     21987     19193     21990     19193
     21993     19193     21996     19193     21999     19193     22002     19193
     22005     19193     22008     19193     22011     19193     22014     19193
     22017     19193     22020     19193     22023     19193     22026     19193
     22029     19193     22032     19193     22035     19193     22038     19193
     22041     19193     22044     19193     22047     19193     22050     19193
     22053     19193     22056     19193     22059     19193     22062     19193
     22065     19193     22068     19193     22071     19193     22074     19193
     22077     19193     22080     19193     22083     19193     22086     19193
     22089     19193     22092     19193     22095     19193     22098     19193
     22101     19193     22104     19193     22107     19193     22110     19193
     22113     19193     22116     19193     22119     19193     22122     19193
     22125     19193     22128     19193     22131     19193     22134     19193
     22137     19193     22140     19193     22143     19193     22146     19193
     22149     19193     22152     19193     22155     19193     22158     19193
     22161     19193     22164     19193     22167     19193     22170     19193
     22173     19193     22176     19193     22179     19193     22182     19193
     22185     19193     22188     19193     22191     19193     22194     19193
     22197     19193     22200     19193     22203     19193     22206     19193
     22209     19193     22212     19193     22215     19193     22218     19193
     22221     19193     22224     19193     22227     19193     22230     19193
     22233     19193     22236     19193     22239     19193     22242     19193
     22245     19193     22248     19193     22251     19193     22254     19193
     22257     19193     22260     19193     22263     19193     22266     19193
     22269     19193     22272     19193     22275     19193     22278     19193
     22281     19193     22284     19193     22287     19193     22290     19193
     22293     19193     22296     19193     22299     19193     22302     19193
     22305     19193     22308     19193     22311     19193     22314     19193
     22317     19193     22320     19193     22323     19193     22326     19193
     22329     19193     22332     19193     22335     19193     22338     19193
     22341     19193     22344     19193     22347     19193     22350     19193
     22353     19193     22356     19193     22359     19193     22362     19193
     22365     19193     22368     19193     22371     19193     22374     19193
     22377     19193     22380     19193     22383     19193     22386     19193
     22389     19193     22392     19193     22395     19193     22398     19193
     22401     19193     22404     19193     22407     19193     22410     19193
     22413     19193     22416     19193     22419     19193     22422     19193
     22425     19193     22428     19193     22431     19193     22434     19193
     22437     19193     22440     19193     22443     19193     22446     19193
     22449     19193     22452     19193     22455     19193     22458     19193
     22461     19193     22464     19193     22467     19193     22470     19193
     22473     19193     22476     19193     22479     19193     22482     19193
     22485     19193     22488     19193     22491     19193     22494     19193
     22497     19193     22500     19193     22503     19193     22506     19193
     22509     19193     22512     19193     22515     19193     22518     19193
     22521     19193     22524     19193     22527     19193     22530     19193
     22533     19193     22536     19193     22539     19193     22542     19193
     22545     19193     22548     19193     22551     19193     22554     19193
     22557     19193     22560     19193     22563     19193     22566     19193
     22569     19193     22572     19193     22575     19193     22578     19193
     22581     19193     22584     19193     22587     19193     22590     19193
     22593     19193     22596     19193     22599     19193     22602     19193
     22605     19193     22608     19193     22611     19193     22614     19193
     22617     19193     22620     19193     22623     19193     22626     19193
     22629     19193     22632     19193     22635     19193     22638     19193
     22641     19193     22644     19193     22647     19193     22650     19193
     22653     19193     22656     19193     22659     19193     22662     19193
     22665     19193     22668     19193     22671     19193     22674     19193
     22677     19193     22680     19193     22683     19193     22686     19193
     22689     19193     22692     19193     22695     19193     22698     19193
     22701     19193     22704     19193     22707     19193     22710     19193
     22713     19193     22716     19193     22719     19193     22722     19193
     22725     19193     22728     19193     22731     19193     22734     19193
     22737     19193     22740     19193     22743     19193     22746     19193
     22749     19193     22752     19193     22755     19193     22758     19193
     22761     19193     22764     19193     22767     19193     22770     19193
     22773     19193     22776     19193     22779     19193     22782     19193
     22785     19193     22788     19193     22791     19193     22794     19193
     22797     19193     22800     19193     22803     19193     22806     19193
     22809     19193     22812     19193     22815     19193     22818     19193
     22821     19193     22824     19193     22827     19193     22830     19193
     22833     19193     22836     19193     22839     19193     22842     19193
     22845     19193     22848     19193     22851     19193     22854     19193
     22857     19193     22860     19193     22863     19193     22866     19193
     22869     19193     22872     19193     22875     19193     22878     19193
     22881     19193     22884     19193     22887     19193     22890     19193
     22893     19193     22896     19193     22899     19193     22902     19193
     22905     19193     22908     19193     22911     19193     22914     19193
     22917     19193     22920     19193     22923     19193     22926     19193
     22929     19193     22932     19193     22935     19193     22938     19193
     22941     19193     22944     19193     22947     19193     22950     19193
     22953     19193     22956     19193     22959     19193     22962     19193
     22965     19193     22968     19193     22971     19193     22974     19193
     22977     19193     22980     19193     22983     19193     22986     19193
     22989     19193     22992     19193     22995     19193     22998     19193
     23001     19193     23004     19193     23007     19193     23010     19193
     23013     19193     23016     19193     23019     19193     23022     19193
     23025     19193     23028     19193     23031     19193     23034     19193
     23037     19193     23040     19193     23043     19193     23046     19193
     23049     19193     23052     19193     23055     19193     23058     19193
     23061     19193     23064     19193     23067     19193     23070     19193
     23073     19193     23076     19193     23079     19193     23082     19193
     23085     19193     23088     19193     23091     19193     23094     19193
     23097     19193     23100     19193     23103     19193     23106     19193
     23109     19193     23112     19193     23115     19193     23118     19193
     23121     19193     23124     19193     23127     19193     23130     19193
     23133     19193     23136     19193     23139     19193     23142     19193
     23145     19193     23148     19193     23151     19193     23154     19193
     23157     19193     23160     19193     23163     19193     23166     19193
     23169     19193     23172     19193     23175     19193     23178     19193
     23181     19193     23184     19193     23187     19193     23190     19193
     23193     19193     23196     19193     23199     19193     23202     19193
     23205     19193     23208     19193     23211     19193     23214     19193
     23217     19193     23220     19193     23223     19193     23226     19193
     23229     19193     23232     19193     23235     19193     23238     19193
     23241     19193     23244     19193     23247     19193     23250     19193
     23253     19193     23256     19193     23259     19193     23262     19193
     23265     19193     23268     19193     23271     19193     23274     19193
     23277     19193     23280     19193     23283     19193     23286     19193
     23289     19193     23292     19193     23295     19193     23298     19193
     23301     19193     23304     19193     23307     19193     23310     19193
     23313     19193     23316     19193     23319     19193     23322     19193
     23325     19193     23328     19193     23331     19193     23334     19193
     23337     19193     23340     19193     23343     19193     23346     19193
     23349     19193     23352     19193     23355     19193     23358     19193
     23361     19193     23364     19193     23367     19193     23370     19193
     23373     19193     23376     19193     23379     19193     23382     19193
     23385     19193     23388     19193     23391     19193     23394     19193
     23397     19193     23400     19193     23403     19193     23406     19193
     23409     19193     23412     19193     23415     19193     23418     19193
     23421     19193     23424     19193     23427     19193     23430     19193
     23433     19193     23436     19193     23439     19193     23442     19193
     23445     19193     23448     19193     23451     19193     23454     19193
     23457     19193     23460     19193     23463     19193     23466     19193
     23469     19193     23472     19193     23475     19193     23478     19193
     23481     19193     23484     19193     23487     19193     23490     19193
     23493     19193     23496     19193     23499     19193     23502     19193
     23505     19193     23508     19193     23511     19193     23514     19193
     23517     19193     23520     19193     23523     19193     23526     19193
     23529     19193     23532     19193     23535     19193     23538     19193
     23541     19193     23544     19193     23547     19193     23550     19193
     23553     19193     23556     19193     23559     19193     23562     19193
     23565     19193     23568     19193     23571     19193     23574     19193
     23577     19193     23580     19193     23583     19193     23586     19193
     23589     19193     23592     19193     23595     19193     23598     19193
     23601     19193     23604     19193     23607     19193     23610     19193
     23613     19193     23616     19193     23619     19193     23622     19193
     23625     19193     23628     19193     23631     19193     23634     19193
     23637     19193     23640     19193     23643     19193     23646     19193
     23649     19193     23652     19193     23655     19193     23658     19193
     23661     19193     23664     19193     23667     19193     23670     19193
     23673     19193     23676     19193     23679     19193     23682     19193
     23685     19193     23688     19193     23691     19193     23694     19193
     23697     19193     23700     19193     23703     19193     23706     19193
     23709     19193     23712     19193     23715     19193     23718     19193
     23721     19193     23724     19193     23727     19193     23730     19193
     23733     19193     23736     19193     23739     19193     23742     19193
     23745     19193     23748     19193     23751     19193     23754     19193
     23757     19193     23760     19193     23763     19193     23766     19193
     23769     19193     23772     19193     23775     19193     23778     19193
     23781     19193     23784     19193     23787     19193     23790     19193
     23793     19193     23796     19193     23799     19193     23802     19193
     23805     19193     23808     19193     23811     19193     23814     19193
     23817     19193     23820     19193     23823     19193     23826     19193
     23829     19193     23832     19193     23835     19193     23838     19193
     23841     19193     23844     19193     23847     19193     23850     19193
     23853     19193     23856     19193     23859     19193     23862     19193
     23865     19193     23868     19193     23871     19193     23874     19193
     23877     19193     23880     19193     23883     19193     23886     19193
     23889     19193     23892     19193     23895     19193     23898     19193
     23901     19193     23904     19193     23907     19193     23910     19193
     23913     19193     23916     19193     23919     19193     23922     19193
     23925     19193     23928     19193     23931     19193     23934     19193
     23937     19193     23940     19193     23943     19193     23946     19193
     23949     19193     23952     19193     23955     19193     23958     19193
     23961     19193     23964     19193     23967     19193     23970     19193
     23973     19193     23976     19193     23979     19193     23982     19193
     23985     19193     23988     19193     23991     19193     23994     19193
     23997     19193     24000     19193     24003     19193     24006     19193
     24009     19193     24012     19193     24015     19193     24018     19193
     24021     19193     24024     19193     24027     19193     24030     19193
     24033     19193     24036     19193     24039     19193     24042     19193
     24045     19193     24048     19193     24051     19193     24054     19193
     24057     19193     24060     19193     24063     19193     24066     19193
     24069     19193     24072     19193     24075     19193     24078     19193
     24081     19193     24084     19193     24087     19193     24090     19193
     24093     19193     24096     19193     24099     19193     24102     19193
     24105     19193     24108     19193     24111     19193     24114     19193
     24117     19193     24120     19193     24123     19193     24126     19193
     24129     19193     24132     19193     24135     19193     24138     19193
     24141     19193     24144     19193     24147     19193     24150     19193
     24153     19193     24156     19193     24159     19193     24162     19193
     24165     19193     24168     19193     24171     19193     24174     19193
     24177     19193     24180     19193     24183     19193     24186     19193
     24189     19193     24192     19193     24195     19193     24198     19193
     24201     19193     24204     19193     24207     19193     24210     19193
     24213     19193     24216     19193     24219     19193     24222     19193
     24225     19193     24228     19193     24231     19193     24234     19193
     24237     19193     24240     19193     24243     19193     24246     19193
     24249     19193     24252     19193     24255     19193     24258     19193
     24261     19193     24264     19193     24267     19193     24270     19193
     24273     19193     24276     19193     24279     19193     24282     19193
     24285     19193     24288     19193     24291     19193     24294     19193
     24297     19193     24300     19193     24303     19193     24306     19193
     24309     19193     24312     19193     24315     19193     24318     19193
     24321     19193     24324     19193     24327     19193     24330     19193
     24333     19193     24336     19193     24339     19193     24342     19193
     24345     19193     24348     19193     24351     19193     24354     19193
     24357     19193     24360     19193     24363     19193     24366     19193
     24369     19193     24372     19193     24375     19193     24378     19193
     24381     19193     24384     19193     24387     19193     24390     19193
     24393     19193     24396     19193     24399     19193     24402     19193
     24405     19193     24408     19193     24411     19193     24414     19193
     24417     19193     24420     19193     24423     19193     24426     19193
     24429     19193     24432     19193     24435     19193     24438     19193
     24441     19193     24444     19193     24447     19193     24450     19193
     24453     19193     24456     19193     24459     19193     24462     19193
     24465     19193     24468     19193     24471     19193     24474     19193
     24477     19193     24480     19193     24483     19193     24486     19193
     24489     19193     24492     19193     24495     19193     24498     19193
     24501     19193     24504     19193     24507     19193     24510     19193
     24513     19193     24516     19193     24519     19193     24522     19193
     24525     19193     24528     19193     24531     19193     24534     19193
     24537     19193     24540     19193     24543     19193     24546     19193
     24549     19193     24552     19193     24555     19193     24558     19193
     24561     19193     24564     19193     24567     19193     24570     19193
     24573     19193     24576     19193     24579     19193     24582     19193
     24585     19193     24588     19193     24591     19193     24594     19193
     24597     19193     24600     19193     24603     19193     24606     19193
     24609     19193     24612     19193     24615     19193     24618     19193
     24621     19193     24624     19193     24627     19193     24630     19193
     24633     19193     24636     19193     24639     19193     24642     19193
     24645     19193     24648     19193     24651     19193     24654     19193
     24657     19193     24660     19193     24663     19193     24666     19193
     24669     19193     24672     19193     24675     19193     24678     19193
     24681     19193     24684     19193     24687     19193     24690     19193
     24693     19193     24696     19193     24699     19193     24702     19193
     24705     19193     24708     19193     24711     19193     24714     19193
     24717     19193     24720     19193     24723     19193     24726     19193
     24729     19193     24732     19193     24735     19193     24738     19193
     24741     19193     24744     19193     24747     19193     24750     19193
     24753     19193     24756     19193     24759     19193     24762     19193
     24765     19193     24768     19193     24771     19193     24774     19193
     24777     19193     24780     19193     24783     19193     24786     19193
     24789     19193     24792     19193     24795     19193     24798     19193
     24801     19193     24804     19193     24807     19193     24810     19193
     24813     19193     24816     19193     24819     19193     24822     19193
     24825     19193     24828     19193     24831     19193     24834     19193
     24837     19193     24840     19193     24843     19193     24846     19193
     24849     19193     24852     19193     24855     19193     24858     19193
     24861     19193     24864     19193     24867     19193     24870     19193
     24873     19193     24876     19193     24879     19193     24882     19193
     24885     19193     24888     19193     24891     19193     24894     19193
     24897     19193     24900     19193     24903     19193     24906     19193
     24909     19193     24912     19193     24915     19193     24918     19193
     24921     19193     24924     19193     24927     19193     24930     19193
     24933     19193     24936     19193     24939     19193     24942     19193
     24945     19193     24948     19193     24951     19193     24954     19193
     24957     19193     24960     19193     24963     19193     24966     19193
     24969     19193     24972     19193     24975     19193     24978     19193
     24981     19193     24984     19193     24987     19193     24990     19193
     24993     19193     24996     19193     24999     19193     25002     19193
     25005     19193     25008     19193     25011     19193     25014     19193
     25017     19193     25020     19193     25023     19193     25026     19193
     25029     19193     25032     19193     25035     19193     25038     19193
     25041     19193     25044     19193     25047     19193     25050     19193
     25053     19193     25056     19193     25059     19193     25062     19193
     25065     19193     25068     19193     25071     19193     25074     19193
     25077     19193     25080     19193     25083     19193     25086     19193
     25089     19193     25092     19193     25095     19193     25098     19193
     25101     19193     25104     19193     25107     19193     25110     19193
     25113     19193     25116     19193     25119     19193     25122     19193
     25125     19193     25128     19193     25131     19193     25134     19193
     25137     19193     25140     19193     25143     19193     25146     19193
     25149     19193     25152     19193     25155     19193     25158     19193
     25161     19193     25164     19193     25167     19193     25170     19193
     25173     19193     25176     19193     25179     19193     25182     19193
     25185     19193     25188     19193     25191     19193     25194     19193
     25197     19193     25200     19193     25203     19193     25206     19193
     25209     19193     25212     19193     25215     19193     25218     19193
     25221     19193     25224     19193     25227     19193     25230     19193
     25233     19193     25236     19193     25239     19193     25242     19193
     25245     19193     25248     19193     25251     19193     25254     19193
     25257     19193     25260     19193     25263     19193     25266     19193
     25269     19193     25272     19193     25275     19193     25278     19193
     25281     19193     25284     19193     25287     19193     25290     19193
     25293     19193     25296     19193     25299     19193     25302     19193
     25305     19193     25308     19193     25311     19193     25314     19193
     25317     19193     25320     19193     25323     19193     25326     19193
     25329     19193     25332     19193     25335     19193     25338     19193
     25341     19193     25344     19193     25347     19193     25350     19193
     25353     19193     25356     19193     25359     19193     25362     19193
     25365     19193     25368     19193     25371     19193     25374     19193
     25377     19193     25380     19193     25383     19193     25386     19193
     25389     19193     25392     19193     25395     19193     25398     19193
     25401     19193     25404     19193     25407     19193     25410     19193
     25413     19193     25416     19193     25419     19193     25422     19193
     25425     19193     25428     19193     25431     19193     25434     19193
     25437     19193     25440     19193     25443     19193     25446     19193
     25449     19193     25452     19193     25455     19193     25458     19193
     25461     19193     25464     19193     25467     19193     25470     19193
     25473     19193     25476     19193     25479     19193     25482     19193
     25485     19193     25488     19193     25491     19193     25494     19193
     25497     19193     25500     19193     25503     19193     25506     19193
     25509     19193     25512     19193     25515     19193     25518     19193
     25521     19193     25524     19193     25527     19193     25530     19193
     25533     19193     25536     19193     25539     19193     25542     19193
     25545     19193     25548     19193     25551     19193     25554     19193
     25557     19193     25560     19193     25563     19193     25566     19193
     25569     19193     25572     19193     25575     19193     25578     19193
     25581     19193     25584     19193     25587     19193     25590     19193
     25593     19193     25596     19193     25599     19193     25602     19193
     25605     19193     25608     19193     25611     19193     25614     19193
     25617     19193     25620     19193     25623     19193     25626     19193
     25629     19193     25632     19193     25635     19193     25638     19193
     25641     19193     25644     19193     25647     19193     25650     19193
     25653     19193     25656     19193     25659     19193     25662     19193
     25665     19193     25668     19193     25671     19193     25674     19193
     25677     19193     25680     19193     25683     19193     25686     19193
     25689     19193     25692     19193     25695     19193     25698     19193
     25701     19193     25704     19193     25707     19193     25710     19193
     25713     19193     25716     19193     25719     19193     25722     19193
     25725     19193     25728     19193     25731     19193     25734     19193
     25737     19193     25740     19193     25743     19193     25746     19193
     25749     19193     25752     19193     25755     19193     25758     19193
     25761     19193     25764     19193     25767     19193     25770     19193
     25773     19193     25776     19193     25779     19193     25782     19193
     25785     19193     25788     19193     25791     19193     25794     19193
     25797     19193     25800     19193     25803     19193     25806     19193
     25809     19193     25812     19193     25815     19193     25818     19193
     25821     19193     25824     19193     25827     19193     25830     19193
     25833     19193     25836     19193     25839     19193     25842     19193
     25845     19193     25848     19193     25851     19193     25854     19193
     25857     19193     25860     19193     25863     19193     25866     19193
     25869     19193     25872     19193     25875     19193     25878     19193
     25881     19193     25884     19193     25887     19193     25890     19193
     25893     19193     25896     19193     25899     19193     25902     19193
     25905     19193     25908     19193     25911     19193     25914     19193
     25917     19193     25920     19193     25923     19193     25926     19193
     25929     19193     25932     19193     25935     19193     25938     19193
     25941     19193     25944     19193     25947     19193     25950     19193
     25953     19193     25956     19193     25959     19193     25962     19193
     25965     19193     25968     19193     25971     19193     25974     19193
     25977     19193     25980     19193     25983     19193     25986     19193
     25989     19193     25992     19193     25995     19193     25998     19193
     26001     19193     26004     19193     26007     19193     26010     19193
     26013     19193     26016     19193     26019     19193     26022     19193
     26025     19193     26028     19193     26031     19193     26034     19193
     26037     19193     26040     19193     26043     19193     26046     19193
     26049     19193     26052     19193     26055     19193     26058     19193
     26061     19193     26064     19193     26067     19193     26070     19193
     26073     19193     26076     19193     26079     19193     26082     19193
     26085     19193     26088     19193     26091     19193     26094     19193
     26097     19193     26100     19193     26103     19193     26106     19193
     26109     19193     26112     19193     26115     19193     26118     19193
     26121     19193     26124     19193     26127     19193     26130     19193
     26133     19193     26136     19193     26139     19193     26142     19193
     26145     19193     26148     19193     26151     19193     26154     19193
     26157     19193     26160     19193     26163     19193     26166     19193
     26169     19193     26172     19193     26175     19193     26178     19193
     26181     19193     26184     19193     26187     19193     26190     19193
     26193     19193     26196     19193     26199     19193     26202     19193
     26205     19193     26208     19193     26211     19193     26214     19193
     26217     19193     26220     19193     26223     19193     26226     19193
     26229     19193     26232     19193     26235     19193     26238     19193
     26241     19193     26244     19193     26247     19193     26250     19193
     26253     19193     26256     19193     26259     19193     26262     19193
     26265     19193     26268     19193     26271     19193     26274     19193
     26277     19193     26280     19193     26283     19193     26286     19193
     26289     19193     26292     19193     26295     19193     26298     19193
     26301     19193     26304     19193     26307     19193     26310     19193
     26313     19193     26316     19193     26319     19193     26322     19193
     26325     19193     26328     19193     26331     19193     26334     19193
     26337     19193     26340     19193     26343     19193     26346     19193
     26349     19193     26352     19193     26355     19193     26358     19193
     26361     19193     26364     19193     26367     19193     26370     19193
     26373     19193     26376     19193     26379     19193     26382     19193
     26385     19193     26388     19193     26391     19193     26394     19193
     26397     19193     26400     19193     26403     19193     26406     19193
     26409     19193     26412     19193     26415     19193     26418     19193
     26421     19193     26424     19193     26427     19193     26430     19193
     26433     19193     26436     19193     26439     19193     26442     19193
     26445     19193     26448     19193     26451     19193     26454     19193
     26457     19193     26460     19193     26463     19193     26466     19193
     26469     19193     26472     19193     26475     19193     26478     19193
     26481     19193     26484     19193     26487     19193     26490     19193
     26493     19193     26496     19193     26499     19193     26502     19193
     26505     19193     26508     19193     26511     19193     26514     19193
     26517     19193     26520     19193     26523     19193     26526     19193
     26529     19193     26532     19193     26535     19193     26538     19193
     26541     19193     26544     19193     26547     19193     26550     19193
     26553     19193     26556     19193     26559     19193     26562     19193
     26565     19193     26568     19193     26571     19193     26574     19193
     26577     19193     26580     19193     26583     19193     26586     19193
     26589     19193     26592     19193     26595     19193     26598     19193
     26601     19193     26604     19193     26607     19193     26610     19193
     26613     19193     26616     19193     26619     19193     26622     19193
     26625     19193     26628     19193     26631     19193     26634     19193
     26637     19193     26640     19193     26643     19193     26646     19193
     26649     19193     26652     19193     26655     19193     26658     19193
     26661     19193     26664     19193     26667     19193     26670     19193
     26673     19193     26676     19193     26679     19193     26682     19193
     26685     19193     26688     19193     26691     19193     26694     19193
     26697     19193     26700     19193     26703     19193     26706     19193
     26709     19193     26712     19193     26715     19193     26718     19193
     26721     19193     26724     19193     26727     19193     26730     19193
     26733     19193     26736     19193     26739     19193     26742     19193
     26745     19193     26748     19193     26751     19193     26754     19193
     26757     19193     26760     19193     26763     19193     26766     19193
     26769     19193     26772     19193     26775     19193     26778     19193
     26781     19193     26784     19193     26787     19193     26790     19193
     26793     19193     26796     19193     26799     19193     26802     19193
     26805     19193     26808     19193     26811     19193     26814     19193
     26817     19193     26820     19193     26823     19193     26826     19193
     26829     19193     26832     19193     26835     19193     26838     19193
     26841     19193     26844     19193     26847     19193     26850     19193
     26853     19193     26856     19193     26859     19193     26862     19193
     26865     19193     26868     19193     26871     19193     26874     19193
     26877     19193     26880     19193     26883     19193     26886     19193
     26889     19193     26892     19193     26895     19193     26898     19193
     26901     19193     26904     19193     26907     19193     26910     19193
     26913     19193     26916     19193     26919     19193     26922     19193
     26925     19193     26928     19193     26931     19193     26934     19193
     26937     19193     26940     19193     26943     19193     26946     19193
     26949     19193     26952     19193     26955     19193     26958     19193
     26961     19193     26964     19193     26967     19193     26970     19193
     26973     19193     26976     19193     26979     19193     26982     19193
     26985     19193     26988     19193     26991     19193     26994     19193
     26997     19193     27000     19193     27003     19193     27006     19193
     27009     19193     27012     19193     27015     19193     27018     19193
     27021     19193     27024     19193     27027     19193     27030     19193
     27033     19193     27036     19193     27039     19193     27042     19193
     27045     19193     27048     19193     27051     19193     27054     19193
     27057     19193     27060     19193     27063     19193     27066     19193
     27069     19193     27072     19193     27075     19193     27078     19193
     27081     19193     27084     19193     27087     19193     27090     19193
     27093     19193     27096     19193     27099     19193     27102     19193
     27105     19193     27108     19193     27111     19193     27114     19193
     27117     19193     27120     19193     27123     19193     27126     19193
     27129     19193     27132     19193     27135     19193     27138     19193
     27141     19193     27144     19193     27147     19193     27150     19193
     27153     19193     27156     19193     27159     19193     27162     19193
     27165     19193     27168     19193     27171     19193     27174     19193
     27177     19193     27180     19193     27183     19193     27186     19193
     27189     19193     27192     19193     27195     19193     27198     19193
     27201     19193     27204     19193     27207     19193     27210     19193
     27213     19193     27216     19193     27219     19193     27222     19193
     27225     19193     27228     19193     27231     19193     27234     19193
     27237     19193     27240     19193     27243     19193     27246     19193
     27249     19193     27252     19193     27255     19193     27258     19193
     27261     19193     27264     19193     27267     19193     27270     19193
     27273     19193     27276     19193     27279     19193     27282     19193
     27285     19193     27288     19193     27291     19193     27294     19193
     27297     19193     27300     19193     27303     19193     27306     19193
     27309     19193     27312     19193     27315     19193     27318     19193
     27321     19193     27324     19193     27327     19193     27330     19193
     27333     19193     27336     19193     27339     19193     27342     19193
     27345     19193     27348     19193     27351     19193     27354     19193
     27357     19193     27360     19193     27363     19193     27366     19193
     27369     19193     27372     19193     27375     19193     27378     19193
     27381     19193     27384     19193     27387     19193     27390     19193
     27393     19193     27396     19193     27399     19193     27402     19193
     27405     19193     27408     19193     27411     19193     27414     19193
     27417     19193     27420     19193     27423     19193     27426     19193
     27429     19193     27432     19193     27435     19193     27438     19193
     27441     19193     27444     19193     27447     19193     27450     19193
     27453     19193     27456     19193     27459     19193     27462     19193
     27465     19193     27468     19193     27471     19193     27474     19193
     27477     19193     27480     19193     27483     19193     27486     19193
     27489     19193     27492     19193     27495     19193     27498     19193
     27501     19193     27504     19193     27507     19193     27510     19193
     27513     19193     27516     19193     27519     19193     27522     19193
     27525     19193     27528     19193     27531     19193     27534     19193
     27537     19193     27540     19193     27543     19193     27546     19193
     27549     19193     27552     19193     27555     19193     27558     19193
     27561     19193     27564     19193     27567     19193     27570     19193
     27573     19193     27576     19193     27579     19193     27582     19193
     27585     19193     27588     19193     27591     19193     27594     19193
     27597     19193     27600     19193     27603     19193     27606     19193
     27609     19193     27612     19193     27615     19193     27618     19193
     27621     19193     27624     19193     27627     19193     27630     19193
     27633     19193     27636     19193     27639     19193     27642     19193
     27645     19193     27648     19193     27651     19193     27654     19193
     27657     19193     27660     19193     27663     19193     27666     19193
     27669     19193     27672     19193     27675     19193     27678     19193
     27681     19193     27684     19193     27687     19193     27690     19193
     27693     19193     27696     19193     27699     19193     27702     19193
     27705     19193     27708     19193     27711     19193     27714     19193
     27717     19193     27720     19193     27723     19193     27726     19193
     27729     19193     27732     19193     27735     19193     27738     19193
     27741     19193     27744     19193     27747     19193     27750     19193
     27753     19193     27756     19193     27759     19193     27762     19193
     27765     19193     27768     19193     27771     19193     27774     19193
     27777     19193     27780     19193     27783     19193     27786     19193
     27789     19193     27792     19193     27795     19193     27798     19193
     27801     19193     27804     19193     27807     19193     27810     19193
     27813     19193     27816     19193     27819     19193     27822     19193
     27825     19193     27828     19193     27831     19193     27834     19193
     27837     19193     27840     19193     27843     19193     27846     19193
     27849     19193     27852     19193     27855     19193     27858     19193
     27861     19193     27864     19193     27867     19193     27870     19193
     27873     19193     27876     19193     27879     19193     27882     19193
     27885     19193     27888     19193     27891     19193     27894     19193
     27897     19193     27900     19193     27903     19193     27906     19193
     27909     19193     27912     19193     27915     19193     27918     19193
     27921     19193     27924     19193     27927     19193     27930     19193
     27933     19193     27936     19193     27939     19193     27942     19193
     27945     19193     27948     19193     27951     19193     27954     19193
     27957     19193     27960     19193     27963     19193     27966     19193
     27969     19193     27972     19193     27975     19193     27978     19193
     27981     19193     27984     19193     27987     19193     27990     19193
     27993     19193     27996     19193     27999     19193     28002     19193
     28005     19193     28008     19193     28011     19193     28014     19193
     28017     19193     28020     19193     28023     19193     28026     19193
     28029     19193     28032     19193     28035     19193     28038     19193
     28041     19193     28044     19193     28047     19193     28050     19193
     28053     19193     28056     19193     28059     19193     28062     19193
     28065     19193     28068     19193     28071     19193     28074     19193
     28077     19193     28080     19193     28083     19193     28086     19193
     28089     19193     28092     19193     28095     19193     28098     19193
     28101     19193     28104     19193     28107     19193     28110     19193
     28113     19193     28116     19193     28119     19193     28122     19193
     28125     19193     28128     19193     28131     19193     28134     19193
     28137     19193     28140     19193     28143     19193     28146     19193
     28149     19193     28152     19193     28155     19193     28158     19193
     28161     19193     28164     19193     28167     19193     28170     19193
     28173     19193     28176     19193     28179     19193     28182     19193
     28185     19193     28188     19193     28191     19193     28194     19193
     28197     19193     28200     19193     28203     19193     28206     19193
     28209     19193     28212     19193     28215     19193     28218     19193
     28221     19193     28224     19193     28227     19193     28230     19193
     28233     19193     28236     19193     28239     19193     28242     19193
     28245     19193     28248     19193     28251     19193     28254     19193
     28257     19193     28260     19193     28263     19193     28266     19193
     28269     19193     28272     19193     28275     19193     28278     19193
     28281     19193     28284     19193     28287     19193     28290     19193
     28293     19193     28296     19193     28299     19193     28302     19193
     28305     19193     28308     19193     28311     19193     28314     19193
     28317     19193     28320     19193     28323     19193     28326     19193
     28329     19193     28332     19193     28335     19193     28338     19193
     28341     19193     28344     19193     28347     19193     28350     19193
     28353     19193     28356     19193     28359     19193     28362     19193
     28365     19193     28368     19193     28371     19193     28374     19193
     28377     19193     28380     19193     28383     19193     28386     19193
     28389     19193     28392     19193     28395     19193     28398     19193
     28401     19193     28404     19193     28407     19193     28410     19193
     28413     19193     28416     19193     28419     19193     28422     19193
     28425     19193     28428     19193     28431     19193     28434     19193
     28437     19193     28440     19193     28443     19193     28446     19193
     28449     19193     28452     19193     28455     19193     28458     19193
     28461     19193     28464     19193     28467     19193     28470     19193
     28473     19193     28476     19193     28479     19193     28482     19193
     28485     19193     28488     19193     28491     19193     28494     19193
     28497     19193     28500     19193     28503     19193     28506     19193
     28509     19193     28512     19193     28515     19193     28518     19193
     28521     19193     28524     19193     28527     19193     28530     19193
     28533     19193     28536     19193     28539     19193     28542     19193
     28545     19193     28548     19193     28551     19193     28554     19193
     28557     19193     28560     19193     28563     19193     28566     19193
     28569     19193     28572     19193     28575     19193     28578     19193
     28581     19193     28584     19193     28587     19193     28590     19193
     28593     19193     28596     19193     28599     19193     28602     19193
     28605     19193     28608     19193     28611     19193     28614     19193
     28617     19193     28620     19193     28623     19193     28626     19193
     28629     19193     28632     19193     28635     19193     28638     19193
     28641     19193     28644     19193     28647     19193     28650     19193
     28653     19193     28656     19193     28659     19193     28662     19193
     28665     19193     28668     19193     28671     19193     28674     19193
     28677     19193     28680     19193     28683     19193     28686     19193
     28689     19193     28692     19193     28695     19193     28698     19193
     28701     19193     28704     19193     28707     19193     28710     19193
     28713     19193     28716     19193     28719     19193     28722     19193
     28725     19193     28728     19193     28731     19193     28734     19193
     28737     19193     28740     19193     28743     19193     28746     19193
     28749     19193     28752     19193     28755     19193     28758     19193
     28761     19193     28764     19193     28767     19193     28770     19193
     28773     19193     28776     19193     28779     19193     28782     19193
     28785     19193     28788     19193     28791     19193     28794     19193
     28797     19193     28800     19193     28803     19193     28806     19193
     28809     19193     28812     19193     28815     19193     28818     19193
     28821     19193     28824     19193     28827     19193     28830     19193
     28833     19193     28836     19193     28839     19193     28842     19193
     28845     19193     28848     19193     28851     19193     28854     19193
     28857     19193     28860     19193     28863     19193     28866     19193
     28869     19193     28872     19193     28875     19193     28878     19193
     28881     19193     28884     19193     28887     19193     28890     19193
     28893     19193     28896     19193     28899     19193     28902     19193
     28905     19193     28908     19193     28911     19193     28914     19193
     28917     19193     28920     19193     28923     19193     28926     19193
     28929     19193     28932     19193     28935     19193     28938     19193
     28941     19193     28944     19193     28947     19193     28950     19193
     28953     19193     28956     19193     28959     19193     28962     19193
     28965     19193     28968     19193     28971     19193     28974     19193
     28977     19193     28980     19193     28983     19193     28986     19193
     28989     19193     28992     19193     28995     19193     28998     19193
     29001     19193     29004     19193     29007     19193     29010     19193
     29013     19193     29016     19193     29019     19193     29022     19193
     29025     19193     29028     19193     29031     19193     29034     19193
     29037     19193     29040     19193     29043     19193     29046     19193
     29049     19193     29052     19193     29055     19193     29058     19193
     29061     19193     29064     19193     29067     19193     29070     19193
     29073     19193     29076     19193     29079     19193     29082     19193
     29085     19193     29088     19193     29091     19193     29094     19193
     29097     19193     29100     19193     29103     19193     29106     19193
     29109     19193     29112     19193     29115     19193     29118     19193
     29121     19193     29124     19193     29127     19193     29130     19193
     29133     19193     29136     19193     29139     19193     29142     19193
     29145     19193     29148     19193     29151     19193     29154     19193
     29157     19193     29160     19193     29163     19193     29166     19193
     29169     19193     29172     19193     29175     19193     29178     19193
     29181     19193     29184     19193     29187     19193     29190     19193
     29193     19193     29196     19193     29199     19193     29202     19193
     29205     19193     29208     19193     29211     19193     29214     19193
     29217     19193     29220     19193     29223     19193     29226     19193
     29229     19193     29232     19193     29235     19193     29238     19193
     29241     19193     29244     19193     29247     19193     29250     19193
     29253     19193     29256     19193     29259     19193     29262     19193
     29265     19193     29268     19193     29271     19193     29274     19193
     29277     19193     29280     19193     29283     19193     29286     19193
     29289     19193     29292     19193     29295     19193     29298     19193
     29301     19193     29304     19193     29307     19193     29310     19193
     29313     19193     29316     19193     29319     19193     29322     19193
     29325     19193     29328     19193     29331     19193     29334     19193
     29337     19193     29340     19193     29343     19193     29346     19193
     29349     19193     29352     19193     29355     19193     29358     19193
     29361     19193     29364     19193     29367     19193     29370     19193
     29373     19193     29376     19193     29379     19193     29382     19193
     29385     19193     29388     19193     29391     19193     29394     19193
     29397     19193     29400     19193     29403     19193     29406     19193
     29409     19193     29412     19193     29415     19193     29418     19193
     29421     19193     29424     19193     29427     19193     29430     19193
     29433     19193     29436     19193     29439     19193     29442     19193
     29445     19193     29448     19193     29451     19193     29454     19193
     29457     19193     29460     19193     29463     19193     29466     19193
     29469     19193     29472     19193     29475     19193     29478     19193
     29481     19193     29484     19193     29487     19193     29490     19193
     29493     19193     29496     19193     29499     19193     29502     19193
     29505     19193     29508     19193     29511     19193     29514     19193
     29517     19193     29520     19193     29523     19193     29526     19193
     29529     19193     29532     19193     29535     19193     29538     19193
     29541     19193     29544     19193     29547     19193     29550     19193
     29553     19193     29556     19193     29559     19193     29562     19193
     29565     19193     29568     19193     29571     19193     29574     19193
     29577     19193     29580     19193     29583     19193     29586     19193
     29589     19193     29592     19193     29595     19193     29598     19193
     29601     19193     29604     19193     29607     19193     29610     19193
     29613     19193     29616     19193     29619     19193     29622     19193
     29625     19193     29628     19193     29631     19193     29634     19193
     29637     19193     29640     19193     29643     19193     29646     19193
     29649     19193     29652     19193     29655     19193     29658     19193
     29661     19193     29664     19193     29667     19193     29670     19193
     29673     19193     29676     19193     29679     19193     29682     19193
     29685     19193     29688     19193     29691     19193     29694     19193
     29697     19193     29700     19193     29703     19193     29706     19193
     29709     19193     29712     19193     29715     19193     29718     19193
     29721     19193     29724     19193     29727     19193     29730     19193
     29733     19193     29736     19193     29739     19193     29742     19193
     29745     19193     29748     19193     29751     19193     29754     19193
     29757     19193     29760     19193     29763     19193     29766     19193
     29769     19193     29772     19193     29775     19193     29778     19193
     29781     19193     29784     19193     29787     19193     29790     19193
     29793     19193     29796     19193     29799     19193     29802     19193
     29805     19193     29808     19193     29811     19193     29814     19193

         0 !NNB

         0         0         0         0         0         0         0         0
         0         0         0         0         0         0         0         0
         0         0         0         0         0         0         0         0
         0         0         0         0         0         0         0         0
         0         0         0         0         0         0         0         0
         0         0         0         0         0         0         0         0
         0         0         0         0         0         0         0         0
         0         0         0         0         0         0         0         0
         0         0         0         0         0         0         0         0
         0         0         0         0         0         0         0         0
         0         0         0         0         0         0         0         0
         0         0         0         0         0         0         0         0
         0         0         0         0         0         0         0         0
         0         0         0         0         0         0         0         0
         0         0         0         0         0         0         0         0
         0         0         0         0         0         0         0         0
         0         0         0         0         0         0         0         0
         0         0         0         0         0         0         0         0
         0         0         0         0         0         0         0         0
         0         0         0         0         0         0         0         0
         0         0         0         0         0         0         0         0
         0         0         0         0         0         0         0         0
         0         0         0         0         0         0         0         0
         0         0         0         0         0         0         0         0
         0         0         0         0         0         0         0         0
         0         0         0         0         0         0         0         0
         0         0         0         0         0         0         0         0
         0         0         0         0         0         0         0         0
         0         0         0         0         0         0         0         0
         0         0         0         0         0         0         0         0
         0         0         0         0         0         0         0         0
         0         0         0         0         0         0         0         0
         0         0         0         0         0         0         0         0
         0         0         0         0         0         0         0         0
         0         0         0         0         0         0         0         0
         0         0         0         0         0         0         0         0
         0         0         0         0         0         0         0         0
         0         0         0         0         0         0         0         0
         0         0         0         0         0         0         0         0
         0         0         0         0         0         0         0         0
         0         0         0         0         0         0         0         0
         0         0         0         0         0         0         0         0
         0         0         0         0         0         0         0         0
         0         0         0         0         0         0         0         0
         0         0         0         0         0         0         0         0
         0         0         0         0         0         0         0         0
         0         0         0         0         0         0         0         0
         0         0         0         0         0         0         0         0
         0         0         0         0         0         0         0         0
         0         0         0         0         0         0         0         0
         0         0         0         0         0         0         0         0
         0         0         0         0         0         0         0         0
         0         0         0         0         0         0         0         0
         0         0         0         0         0         0         0         0
         0         0         0         0         0         0         0         0
         0         0         0         0         0         0         0         0
         0         0         0         0         0         0         0         0
         0         0         0         0         0         0         0         0
         0         0         0         0         0         0         0         0
         0         0         0         0         0         0         0         0
         0         0         0         0         0         0         0         0
         0         0         0         0         0         0         0         0
         0         0         0         0         0         0         0         0
         0         0         0         0         0         0         0         0
         0         0         0         0         0         0         0         0
         0         0         0         0         0         0         0         0
         0         0         0         0         0         0         0         0
         0         0         0         0         0         0         0         0
         0         0         0         0         0         0         0         0
         0         0         0         0         0         0         0         0
         0         0         0         0         0         0         0         0
         0         0         0         0         0         0         0         0
         0         0         0         0         0         0         0         0
         0         0         0         0         0         0         0         0
         0         0         0         0         0         0         0         0
         0         0         0         0         0         0         0         0
         0         0         0         0         0         0         0         0
         0         0         0         0         0         0         0         0
         0         0         0         0         0         0         0         0
         0         0         0         0         0         0         0         0
         0         0         0         0         0         0         0         0
         0         0         0         0         0         0         0         0
         0         0         0         0         0         0         0         0
         0         0         0         0         0         0         0         0
         0         0         0         0         0         0         0         0
         0         0         0         0         0         0         0         0
         0         0         0         0         0         0         0         0
         0         0         0         0         0         0         0         0
         0         0         0         0         0         0         0         0
         0         0         0         0         0         0         0         0
         0         0         0         0         0         0         0         0
         0         0         0         0         0         0         0         0
         0         0         0         0         0         0         0         0
         0         0         0         0         0         0         0         0
         0         0         0         0         0         0         0         0
         0         0         0         0         0         0         0         0
         0         0         0         0         0         0         0         0
         0         0         0         0         0         0         0         0
         0         0         0         0         0         0         0         0
         0         0         0         0         0         0         0         0
         0         0         0         0         0         0         0         0
         0         0         0         0         0         0         0         0
         0         0         0         0         0         0         0         0
         0         0         0         0         0         0         0         0
         0         0         0         0         0         0         0         0
         0         0         0         0         0         0         0         0
         0         0         0         0         0         0         0         0
         0         0         0         0         0         0         0         0
         0         0         0         0         0         0         0         0
         0         0         0         0         0         0         0         0
         0         0         0         0         0         0         0         0
         0         0         0         0         0         0         0         0
         0         0         0         0         0         0         0         0
         0         0         0         0         0         0         0         0
         0         0         0         0         0         0         0         0
         0         0         0         0         0         0         0         0
         0         0         0         0         0         0         0         0
         0         0         0         0         0         0         0         0
         0         0         0         0         0         0         0         0
         0         0         0         0         0         0         0         0
         0         0         0         0         0         0         0         0
         0         0         0         0         0         0         0         0
         0         0         0         0         0         0         0         0
         0         0         0         0         0         0         0         0
         0         0         0         0         0         0         0         0
         0         0         0         0         0         0         0         0
         0         0         0         0         0         0         0         0
         0         0         0         0         0         0         0         0
         0         0         0         0         0         0         0         0
         0         0         0         0         0         0         0         0
         0         0         0         0         0         0         0         0
         0         0         0         0         0         0         0         0
         0         0         0         0         0         0         0         0
         0         0         0         0         0         0         0         0
         0         0         0         0         0         0         0         0
         0         0         0         0         0         0         0         0
         0         0         0         0         0         0         0         0
         0         0         0         0         0         0         0         0
         0         0         0         0         0         0         0         0
         0         0         0         0         0         0         0         0
         0         0         0         0         0         0         0         0
         0         0         0         0         0         0         0         0
         0         0         0         0         0         0         0         0
         0         0         0         0         0         0         0         0
         0         0         0         0         0         0         0         0
         0         0         0         0         0         0         0         0
         0         0         0         0         0         0         0         0
         0         0         0         0         0         0         0         0
         0         0         0         0         0         0         0         0
         0         0         0         0         0         0         0         0
         0         0         0         0         0         0         0         0
         0         0         0         0         0         0         0         0
         0         0         0         0         0         0         0         0
         0         0         0         0         0         0         0         0
         0         0         0         0         0         0         0         0
         0         0         0         0         0         0         0         0
         0         0         0         0         0         0         0         0
         0         0         0         0         0         0         0         0
         0         0         0         0         0         0         0         0
         0         0         0         0         0         0         0         0
         0         0         0         0         0         0         0         0
         0         0         0         0         0         0         0         0
         0         0         0         0         0         0         0         0
         0         0         0         0         0         0         0         0
         0         0         0         0         0         0         0         0
         0         0         0         0         0         0         0         0
         0         0         0         0         0         0         0         0
         0         0         0         0         0         0         0         0
         0         0         0         0         0         0         0         0
         0         0         0         0         0         0         0         0
         0         0         0         0         0         0         0         0
         0         0         0         0         0         0         0         0
         0         0         0         0         0         0         0         0
         0         0         0         0         0         0         0         0
         0         0         0         0         0         0         0         0
         0         0         0         0         0         0         0         0
         0         0         0         0         0         0         0         0
         0         0         0         0         0         0         0         0
         0         0         0         0         0         0         0         0
         0         0         0         0         0         0         0         0
         0         0         0         0         0         0         0         0
         0         0         0         0         0         0         0         0
         0         0         0         0         0         0         0         0
         0         0         0         0         0         0         0         0
         0         0         0         0         0         0         0         0
         0         0         0         0         0         0         0         0
         0         0         0         0         0         0         0         0
         0         0         0         0         0         0         0         0
         0         0         0         0         0         0         0         0
         0         0         0         0         0         0         0         0
         0         0         0         0         0         0         0         0
         0         0         0         0         0         0         0         0
         0         0         0         0         0         0         0         0
         0         0         0         0         0         0         0         0
         0         0         0         0         0         0         0         0
         0         0         0         0         0         0         0         0
         0         0         0         0         0         0         0         0
         0         0         0         0         0         0         0         0
         0         0         0         0         0         0         0         0
         0         0         0         0         0         0         0         0
         0         0         0         0         0         0         0         0
         0         0         0         0         0         0         0         0
         0         0         0         0         0         0         0         0
         0         0         0         0         0         0         0         0
         0         0         0         0         0         0         0         0
         0         0         0         0         0         0         0         0
         0         0         0         0         0         0         0         0
         0         0         0         0         0         0         0         0
         0         0         0         0         0         0         0         0
         0         0         0         0         0         0         0         0
         0         0         0         0         0         0         0         0
         0         0         0         0         0         0         0         0
         0         0         0         0         0         0         0         0
         0         0         0         0         0         0         0         0
         0         0         0         0         0         0         0         0
         0         0         0         0         0         0         0         0
         0         0         0         0         0         0         0         0
         0         0         0         0         0         0         0         0
         0         0         0         0         0         0         0         0
         0         0         0         0         0         0         0         0
         0         0         0         0         0         0         0         0
         0         0         0         0         0         0         0         0
         0         0         0         0         0         0         0         0
         0         0         0         0         0         0         0         0
         0         0         0         0         0         0         0         0
         0         0         0         0         0         0         0         0
         0         0         0         0         0         0         0         0
         0         0         0         0         0         0         0         0
         0         0         0         0         0         0         0         0
         0         0         0         0         0         0         0         0
         0         0         0         0         0         0         0         0
         0         0         0         0         0         0         0         0
         0         0         0         0         0         0         0         0
         0         0         0         0         0         0         0         0
         0         0         0         0         0         0         0         0
         0         0         0         0         0         0         0         0
         0         0         0         0         0         0         0         0
         0         0         0         0         0         0         0         0
         0         0         0         0         0         0         0         0
         0         0         0         0         0         0         0         0
         0         0         0         0         0         0         0         0
         0         0         0         0         0         0         0         0
         0         0         0         0         0         0         0         0
         0         0         0         0         0         0         0         0
         0         0         0         0         0         0         0         0
         0         0         0         0         0         0         0         0
         0         0         0         0         0         0         0         0
         0         0         0         0         0         0         0         0
         0         0         0         0         0         0         0         0
         0         0         0         0         0         0         0         0
         0         0         0         0         0         0         0         0
         0         0         0         0         0         0         0         0
         0         0         0         0         0         0         0         0
         0         0         0         0         0         0         0         0
         0         0         0         0         0         0         0         0
         0         0         0         0         0         0         0         0
         0         0         0         0         0         0         0         0
         0         0         0         0         0         0         0         0
         0         0         0         0         0         0         0         0
         0         0         0         0         0         0         0         0
         0         0         0         0         0         0         0         0
         0         0         0         0         0         0         0         0
         0         0         0         0         0         0         0         0
         0         0         0         0         0         0         0         0
         0         0         0         0         0         0         0         0
         0         0         0         0         0         0         0         0
         0         0         0         0         0         0         0         0
         0         0         0         0         0         0         0         0
         0         0         0         0         0         0         0         0
         0         0         0         0         0         0         0         0
         0         0         0         0         0         0         0         0
         0         0         0         0         0         0         0         0
         0         0         0         0         0         0         0         0
         0         0         0         0         0         0         0         0
         0         0         0         0         0         0         0         0
         0         0         0         0         0         0         0         0
         0         0         0         0         0         0         0         0
         0         0         0         0         0         0         0         0
         0         0         0         0         0         0         0         0
         0         0         0         0         0         0         0         0
         0         0         0         0         0         0         0         0
         0         0         0         0         0         0         0         0
         0         0         0         0         0         0         0         0
         0         0         0         0         0         0         0         0
         0         0         0         0         0         0         0         0
         0         0         0         0         0         0         0         0
         0         0         0         0         0         0         0         0
         0         0         0         0         0         0         0         0
         0         0         0         0         0         0         0         0
         0         0         0         0         0         0         0         0
         0         0         0         0         0         0         0         0
         0         0         0         0         0         0         0         0
         0         0         0         0         0         0         0         0
         0         0         0         0         0         0         0         0
         0         0         0         0         0         0         0         0
         0         0         0         0         0         0         0         0
         0         0         0         0         0         0         0         0
         0         0         0         0         0         0         0         0
         0         0         0         0         0         0         0         0
         0         0         0         0         0         0         0         0
         0         0         0         0         0         0         0         0
         0         0         0         0         0         0         0         0
         0         0         0         0         0         0         0         0
         0         0         0         0         0         0         0         0
         0         0         0         0         0         0         0         0
         0         0         0         0         0         0         0         0
         0         0         0         0         0         0         0         0
         0         0         0         0         0         0         0         0
         0         0         0         0         0         0         0         0
         0         0         0         0         0         0         0         0
         0         0         0         0         0         0         0         0
         0         0         0         0         0         0         0         0
         0         0         0         0         0         0         0         0
         0         0         0         0         0         0         0         0
         0         0         0         0         0         0         0         0
         0         0         0         0         0         0         0         0
         0         0         0         0         0         0         0         0
         0         0         0         0         0         0         0         0
         0         0         0         0         0         0         0         0
         0         0         0         0         0         0         0         0
         0         0         0         0         0         0         0         0
         0         0         0         0         0         0         0         0
         0         0         0         0         0         0         0         0
         0         0         0         0         0         0         0         0
         0         0         0         0         0         0         0         0
         0         0         0         0         0         0         0         0
         0         0         0         0         0         0         0         0
         0         0         0         0         0         0         0         0
         0         0         0         0         0         0         0         0
         0         0         0         0         0         0         0         0
         0         0         0         0         0         0         0         0
         0         0         0         0         0         0         0         0
         0         0         0         0         0         0         0         0
         0         0         0         0         0         0         0         0
         0         0         0         0         0         0         0         0
         0         0         0         0         0         0         0         0
         0         0         0         0         0         0         0         0
         0         0         0         0         0         0         0         0
         0         0         0         0         0         0         0         0
         0         0         0         0         0         0         0         0
         0         0         0         0         0         0         0         0
         0         0         0         0         0         0         0         0
         0         0         0         0         0         0         0         0
         0         0         0         0         0         0         0         0
         0         0         0         0         0         0         0         0
         0         0         0         0         0         0         0         0
         0         0         0         0         0         0         0         0
         0         0         0         0         0         0         0         0
         0         0         0         0         0         0         0         0
         0         0         0         0         0         0         0         0
         0         0         0         0         0         0         0         0
         0         0         0         0         0         0         0         0
         0         0         0         0         0         0         0         0
         0         0         0         0         0         0         0         0
         0         0         0         0         0         0         0         0
         0         0         0         0         0         0         0         0
         0         0         0         0         0         0         0         0
         0         0         0         0         0         0         0         0
         0         0         0         0         0         0         0         0
         0         0         0         0         0         0         0         0
         0         0         0         0         0         0         0         0
         0         0         0         0         0         0         0         0
         0         0         0         0         0         0         0         0
         0         0         0         0         0         0         0         0
         0         0         0         0         0         0         0         0
         0         0         0         0         0         0         0         0
         0         0         0         0         0         0         0         0
         0         0         0         0         0         0         0         0
         0         0         0         0         0         0         0         0
         0         0         0         0         0         0         0         0
         0         0         0         0         0         0         0         0
         0         0         0         0         0         0         0         0
         0         0         0         0         0         0         0         0
         0         0         0         0         0         0         0         0
         0         0         0         0         0         0         0         0
         0         0         0         0         0         0         0         0
         0         0         0         0         0         0         0         0
         0         0         0         0         0         0         0         0
         0         0         0         0         0         0         0         0
         0         0         0         0         0         0         0         0
         0         0         0         0         0         0         0         0
         0         0         0         0         0         0         0         0
         0         0         0         0         0         0         0         0
         0         0         0         0         0         0         0         0
         0         0         0         0         0         0         0         0
         0         0         0         0         0         0         0         0
         0         0         0         0         0         0         0         0
         0         0         0         0         0         0         0         0
         0         0         0         0         0         0         0         0
         0         0         0         0         0         0         0         0
         0         0         0         0         0         0         0         0
         0         0         0         0         0         0         0         0
         0         0         0         0         0         0         0         0
         0         0         0         0         0         0         0         0
         0         0         0         0         0         0         0         0
         0         0         0         0         0         0         0         0
         0         0         0         0         0         0         0         0
         0         0         0         0         0         0         0         0
         0         0         0         0         0         0         0         0
         0         0         0         0         0         0         0         0
         0         0         0         0         0         0         0         0
         0         0         0         0         0         0         0         0
         0         0         0         0         0         0         0         0
         0         0         0         0         0         0         0         0
         0         0         0         0         0         0         0         0
         0         0         0         0         0         0         0         0
         0         0         0         0         0         0         0         0
         0         0         0         0         0         0         0         0
         0         0         0         0         0         0         0         0
         0         0         0         0         0         0         0         0
         0         0         0         0         0         0         0         0
         0         0         0         0         0         0         0         0
         0         0         0         0         0         0         0         0
         0         0         0         0         0         0         0         0
         0         0         0         0         0         0         0         0
         0         0         0         0         0         0         0         0
         0         0         0         0         0         0         0         0
         0         0         0         0         0         0         0         0
         0         0         0         0         0         0         0         0
         0         0         0         0         0         0         0         0
         0         0         0         0         0         0         0         0
         0         0         0         0         0         0         0         0
         0         0         0         0         0         0         0         0
         0         0         0         0         0         0         0         0
         0         0         0         0         0         0         0         0
         0         0         0         0         0         0         0         0
         0         0         0         0         0         0         0         0
         0         0         0         0         0         0         0         0
         0         0         0         0         0         0         0         0
         0         0         0         0         0         0         0         0
         0         0         0         0         0         0         0         0
         0         0         0         0         0         0         0         0
         0         0         0         0         0         0         0         0
         0         0         0         0         0         0         0         0
         0         0         0         0         0         0         0         0
         0         0         0         0         0         0         0         0
         0         0         0         0         0         0         0         0
         0         0         0         0         0         0         0         0
         0         0         0         0         0         0         0         0
         0         0         0         0         0         0         0         0
         0         0         0         0         0         0         0         0
         0         0         0         0         0         0         0         0
         0         0         0         0         0         0         0         0
         0         0         0         0         0         0         0         0
         0         0         0         0         0         0         0         0
         0         0         0         0         0         0         0         0
         0         0         0         0         0         0         0         0
         0         0         0         0         0         0         0         0
         0         0         0         0         0         0         0         0
         0         0         0         0         0         0         0         0
         0         0         0         0         0         0         0         0
         0         0         0         0         0         0         0         0
         0         0         0         0         0         0         0         0
         0         0         0         0         0         0         0         0
         0         0         0         0         0         0         0         0
         0         0         0         0         0         0         0         0
         0         0         0         0         0         0         0         0
         0         0         0         0         0         0         0         0
         0         0         0         0         0         0         0         0
         0         0         0         0         0         0         0         0
         0         0         0         0         0         0         0         0
         0         0         0         0         0         0         0         0
         0         0         0         0         0         0         0         0
         0         0         0         0         0         0         0         0
         0         0         0         0         0         0         0         0
         0         0         0         0         0         0         0         0
         0         0         0         0         0         0         0         0
         0         0         0         0         0         0         0         0
         0         0         0         0         0         0         0         0
         0         0         0         0         0         0         0         0
         0         0         0         0         0         0         0         0
         0         0         0         0         0         0         0         0
         0         0         0         0         0         0         0         0
         0         0         0         0         0         0         0         0
         0         0         0         0         0         0         0         0
         0         0         0         0         0         0         0         0
         0         0         0         0         0         0         0         0
         0         0         0         0         0         0         0         0
         0         0         0         0         0         0         0         0
         0         0         0         0         0         0         0         0
         0         0         0         0         0         0         0         0
         0         0         0         0         0         0         0         0
         0         0         0         0         0         0         0         0
         0         0         0         0         0         0         0         0
         0         0         0         0         0         0         0         0
         0         0         0         0         0         0         0         0
         0         0         0         0         0         0         0         0
         0         0         0         0         0         0         0         0
         0         0         0         0         0         0         0         0
         0         0         0         0         0         0         0         0
         0         0         0         0         0         0         0         0
         0         0         0         0         0         0         0         0
         0         0         0         0         0         0         0         0
         0         0         0         0         0         0         0         0
         0         0         0         0         0         0         0         0
         0         0         0         0         0         0         0         0
         0         0         0         0         0         0         0         0
         0         0         0         0         0         0         0         0
         0         0         0         0         0         0         0         0
         0         0         0         0         0         0         0         0
         0         0         0         0         0         0         0         0
         0         0         0         0         0         0         0         0
         0         0         0         0         0         0         0         0
         0         0         0         0         0         0         0         0
         0         0         0         0         0         0         0         0
         0         0         0         0         0         0         0         0
         0         0         0         0         0         0         0         0
         0         0         0         0         0         0         0         0
         0         0         0         0         0         0         0         0
         0         0         0         0         0         0         0         0
         0         0         0         0         0         0         0         0
         0         0         0         0         0         0         0         0
         0         0         0         0         0         0         0         0
         0         0         0         0         0         0         0         0
         0         0         0         0         0         0         0         0
         0         0         0         0         0         0         0         0
         0         0         0         0         0         0         0         0
         0         0         0         0         0         0         0         0
         0         0         0         0         0         0         0         0
         0         0         0         0         0         0         0         0
         0         0         0         0         0         0         0         0
         0         0         0         0         0         0         0         0
         0         0         0         0         0         0         0         0
         0         0         0         0         0         0         0         0
         0         0         0         0         0         0         0         0
         0         0         0         0         0         0         0         0
         0         0         0         0         0         0         0         0
         0         0         0         0         0         0         0         0
         0         0         0         0         0         0         0         0
         0         0         0         0         0         0         0         0
         0         0         0         0         0         0         0         0
         0         0         0         0         0         0         0         0
         0         0         0         0         0         0         0         0
         0         0         0         0         0         0         0         0
         0         0         0         0         0         0         0         0
         0         0         0         0         0         0         0         0
         0         0         0         0         0         0         0         0
         0         0         0         0         0         0         0         0
         0         0         0         0         0         0         0         0
         0         0         0         0         0         0         0         0
         0         0         0         0         0         0         0         0
         0         0         0         0         0         0         0         0
         0         0         0         0         0         0         0         0
         0         0         0         0         0         0         0         0
         0         0         0         0         0         0         0         0
         0         0         0         0         0         0         0         0
         0         0         0         0         0         0         0         0
         0         0         0         0         0         0         0         0
         0         0         0         0         0         0         0         0
         0         0         0         0         0         0         0         0
         0         0         0         0         0         0         0         0
         0         0         0         0         0         0         0         0
         0         0         0         0         0         0         0         0
         0         0         0         0         0         0         0         0
         0         0         0         0         0         0         0         0
         0         0         0         0         0         0         0         0
         0         0         0         0         0         0         0         0
         0         0         0         0         0         0         0         0
         0         0         0         0         0         0         0         0
         0         0         0         0         0         0         0         0
         0         0         0         0         0         0         0         0
         0         0         0         0         0         0         0         0
         0         0         0         0         0         0         0         0
         0         0         0         0         0         0         0         0
         0         0         0         0         0         0         0         0
         0         0         0         0         0         0         0         0
         0         0         0         0         0         0         0         0
         0         0         0         0         0         0         0         0
         0         0         0         0         0         0         0         0
         0         0         0         0         0         0         0         0
         0         0         0         0         0         0         0         0
         0         0         0         0         0         0         0         0
         0         0         0         0         0         0         0         0
         0         0         0         0         0         0         0         0
         0         0         0         0         0         0         0         0
         0         0         0         0         0         0         0         0
         0         0         0         0         0         0         0         0
         0         0         0         0         0         0         0         0
         0         0         0         0         0         0         0         0
         0         0         0         0         0         0         0         0
         0         0         0         0         0         0         0         0
         0         0         0         0         0         0         0         0
         0         0         0         0         0         0         0         0
         0         0         0         0         0         0         0         0
         0         0         0         0         0         0         0         0
         0         0         0         0         0         0         0         0
         0         0         0         0         0         0         0         0
         0         0         0         0         0         0         0         0
         0         0         0         0         0         0         0         0
         0         0         0         0         0         0         0         0
         0         0         0         0         0         0         0         0
         0         0         0         0         0         0         0         0
         0         0         0         0         0         0         0         0
         0         0         0         0         0         0         0         0
         0         0         0         0         0         0         0         0
         0         0         0         0         0         0         0         0
         0         0         0         0         0         0         0         0
         0         0         0         0         0         0         0         0
         0         0         0         0         0         0         0         0
         0         0         0         0         0         0         0         0
         0         0         0         0         0         0         0         0
         0         0         0         0         0         0         0         0
         0         0         0         0         0         0         0         0
         0         0         0         0         0         0         0         0
         0         0         0         0         0         0         0         0
         0         0         0         0         0         0         0         0
         0         0         0         0         0         0         0         0
         0         0         0         0         0         0         0         0
         0         0         0         0         0         0         0         0
         0         0         0         0         0         0         0         0
         0         0         0         0         0         0         0         0
         0         0         0         0         0         0         0         0
         0         0         0         0         0         0         0         0
         0         0         0         0         0         0         0         0
         0         0         0         0         0         0         0         0
         0         0         0         0         0         0         0         0
         0         0         0         0         0         0         0         0
         0         0         0         0         0         0         0         0
         0         0         0         0         0         0         0         0
         0         0         0         0         0         0         0         0
         0         0         0         0         0         0         0         0
         0         0         0         0         0         0         0         0
         0         0         0         0         0         0         0         0
         0         0         0         0         0         0         0         0
         0         0         0         0         0         0         0         0
         0         0         0         0         0         0         0         0
         0         0         0         0         0         0         0         0
         0         0         0         0         0         0         0         0
         0         0         0         0         0         0         0         0
         0         0         0         0         0         0         0         0
         0         0         0         0         0         0         0         0
         0         0         0         0         0         0         0         0
         0         0         0         0         0         0         0         0
         0         0         0         0         0         0         0         0
         0         0         0         0         0         0         0         0
         0         0         0         0         0         0         0         0
         0         0         0         0         0         0         0         0
         0         0         0         0         0         0         0         0
         0         0         0         0         0         0         0         0
         0         0         0         0         0         0         0         0
         0         0         0         0         0         0         0         0
         0         0         0         0         0         0         0         0
         0         0         0         0         0         0         0         0
         0         0         0         0         0         0         0         0
         0         0         0         0         0         0         0         0
         0         0         0         0         0         0         0         0
         0         0         0         0         0         0         0         0
         0         0         0         0         0         0         0         0
         0         0         0         0         0         0         0         0
         0         0         0         0         0         0         0         0
         0         0         0         0         0         0         0         0
         0         0         0         0         0         0         0         0
         0         0         0         0         0         0         0         0
         0         0         0         0         0         0         0         0
         0         0         0         0         0         0         0         0
         0         0         0         0         0         0         0         0
         0         0         0         0         0         0         0         0
         0         0         0         0         0         0         0         0
         0         0         0         0         0         0         0         0
         0         0         0         0         0         0         0         0
         0         0         0         0         0         0         0         0
         0         0         0         0         0         0         0         0
         0         0         0         0         0         0         0         0
         0         0         0         0         0         0         0         0
         0         0         0         0         0         0         0         0
         0         0         0         0         0         0         0         0
         0         0         0         0         0         0         0         0
         0         0         0         0         0         0         0         0
         0         0         0         0         0         0         0         0
         0         0         0         0         0         0         0         0
         0         0         0         0         0         0         0         0
         0         0         0         0         0         0         0         0
         0         0         0         0         0         0         0         0
         0         0         0         0         0         0         0         0
         0         0         0         0         0         0         0         0
         0         0         0         0         0         0         0         0
         0         0         0         0         0         0         0         0
         0         0         0         0         0         0         0         0
         0         0         0         0         0         0         0         0
         0         0         0         0         0         0         0         0
         0         0         0         0         0         0         0         0
         0         0         0         0         0         0         0         0
         0         0         0         0         0         0         0         0
         0         0         0         0         0         0         0         0
         0         0         0         0         0         0         0         0
         0         0         0         0         0         0         0         0
         0         0         0         0         0         0         0         0
         0         0         0         0         0         0         0         0
         0         0         0         0         0         0         0         0
         0         0         0         0         0         0         0         0
         0         0         0         0         0         0         0         0
         0         0         0         0         0         0         0         0
         0         0         0         0         0         0         0         0
         0         0         0         0         0         0         0         0
         0         0         0         0         0         0         0         0
         0         0         0         0         0         0         0         0
         0         0         0         0         0         0         0         0
         0         0         0         0         0         0         0         0
         0         0         0         0         0         0         0         0
         0         0         0         0         0         0         0         0
         0         0         0         0         0         0         0         0
         0         0         0         0         0         0         0         0
         0         0         0         0         0         0         0         0
         0         0         0         0         0         0         0         0
         0         0         0         0         0         0         0         0
         0         0         0         0         0         0         0         0
         0         0         0         0         0         0         0         0
         0         0         0         0         0         0         0         0
         0         0         0         0         0         0         0         0
         0         0         0         0         0         0         0         0
         0         0         0         0         0         0         0         0
         0         0         0         0         0         0         0         0
         0         0         0         0         0         0         0         0
         0         0         0         0         0         0         0         0
         0         0         0         0         0         0         0         0
         0         0         0         0         0         0         0         0
         0         0         0         0         0         0         0         0
         0         0         0         0         0         0         0         0
         0         0         0         0         0         0         0         0
         0         0         0         0         0         0         0         0
         0         0         0         0         0         0         0         0
         0         0         0         0         0         0         0         0
         0         0         0         0         0         0         0         0
         0         0         0         0         0         0         0         0
         0         0         0         0         0         0         0         0
         0         0         0         0         0         0         0         0
         0         0         0         0         0         0         0         0
         0         0         0         0         0         0         0         0
         0         0         0         0         0         0         0         0
         0         0         0         0         0         0         0         0
         0         0         0         0         0         0         0         0
         0         0         0         0         0         0         0         0
         0         0         0         0         0         0         0         0
         0         0         0         0         0         0         0         0
         0         0         0         0         0         0         0         0
         0         0         0         0         0         0         0         0
         0         0         0         0         0         0         0         0
         0         0         0         0         0         0         0         0
         0         0         0         0         0         0         0         0
         0         0         0         0         0         0         0         0
         0         0         0         0         0         0         0         0
         0         0         0         0         0         0         0         0
         0         0         0         0         0         0         0         0
         0         0         0         0         0         0         0         0
         0         0         0         0         0         0         0         0
         0         0         0         0         0         0         0         0
         0         0         0         0         0         0         0         0
         0         0         0         0         0         0         0         0
         0         0         0         0         0         0         0         0
         0         0         0         0         0         0         0         0
         0         0         0         0         0         0         0         0
         0         0         0         0         0         0         0         0
         0         0         0         0         0         0         0         0
         0         0         0         0         0         0         0         0
         0         0         0         0         0         0         0         0
         0         0         0         0         0         0         0         0
         0         0         0         0         0         0         0         0
         0         0         0         0         0         0         0         0
         0         0         0         0         0         0         0         0
         0         0         0         0         0         0         0         0
         0         0         0         0         0         0         0         0
         0         0         0         0         0         0         0         0
         0         0         0         0         0         0         0         0
         0         0         0         0         0         0         0         0
         0         0         0         0         0         0         0         0
         0         0         0         0         0         0         0         0
         0         0         0         0         0         0         0         0
         0         0         0         0         0         0         0         0
         0         0         0         0         0         0         0         0
         0         0         0         0         0         0         0         0
         0         0         0         0         0         0         0         0
         0         0         0         0         0         0         0         0
         0         0         0         0         0         0         0         0
         0         0         0         0         0         0         0         0
         0         0         0         0         0         0         0         0
         0         0         0         0         0         0         0         0
         0         0         0         0         0         0         0         0
         0         0         0         0         0         0         0         0
         0         0         0         0         0         0         0         0
         0         0         0         0         0         0         0         0
         0         0         0         0         0         0         0         0
         0         0         0         0         0         0         0         0
         0         0         0         0         0         0         0         0
         0         0         0         0         0         0         0         0
         0         0         0         0         0         0         0         0
         0         0         0         0         0         0         0         0
         0         0         0         0         0         0         0         0
         0         0         0         0         0         0         0         0
         0         0         0         0         0         0         0         0
         0         0         0         0         0         0         0         0
         0         0         0         0         0         0         0         0
         0         0         0         0         0         0         0         0
         0         0         0         0         0         0         0         0
         0         0         0         0         0         0         0         0
         0         0         0         0         0         0         0         0
         0         0         0         0         0         0         0         0
         0         0         0         0         0         0         0         0
         0         0         0         0         0         0         0         0
         0         0         0         0         0         0         0         0
         0         0         0         0         0         0         0         0
         0         0         0         0         0         0         0         0
         0         0         0         0         0         0         0         0
         0         0         0         0         0         0         0         0
         0         0         0         0         0         0         0         0
         0         0         0         0         0         0         0         0
         0         0         0         0         0         0         0         0
         0         0         0         0         0         0         0         0
         0         0         0         0         0         0         0         0
         0         0         0         0         0         0         0         0
         0         0         0         0         0         0         0         0
         0         0         0         0         0         0         0         0
         0         0         0         0         0         0         0         0
         0         0         0         0         0         0         0         0
         0         0         0         0         0         0         0         0
         0         0         0         0         0         0         0         0
         0         0         0         0         0         0         0         0
         0         0         0         0         0         0         0         0
         0         0         0         0         0         0         0         0
         0         0         0         0         0         0         0         0
         0         0         0         0         0         0         0         0
         0         0         0         0         0         0         0         0
         0         0         0         0         0         0         0         0
         0         0         0         0         0         0         0         0
         0         0         0         0         0         0         0         0
         0         0         0         0         0         0         0         0
         0         0         0         0         0         0         0         0
         0         0         0         0         0         0         0         0
         0         0         0         0         0         0         0         0
         0         0         0         0         0         0         0         0
         0         0         0         0         0         0         0         0
         0         0         0         0         0         0         0         0
         0         0         0         0         0         0         0         0
         0         0         0         0         0         0         0         0
         0         0         0         0         0         0         0         0
         0         0         0         0         0         0         0         0
         0         0         0         0         0         0         0         0
         0         0         0         0         0         0         0         0
         0         0         0         0         0         0         0         0
         0         0         0         0         0         0         0         0
         0         0         0         0         0         0         0         0
         0         0         0         0         0         0         0         0
         0         0         0         0         0         0         0         0
         0         0         0         0         0         0         0         0
         0         0         0         0         0         0         0         0
         0         0         0         0         0         0         0         0
         0         0         0         0         0         0         0         0
         0         0         0         0         0         0         0         0
         0         0         0         0         0         0         0         0
         0         0         0         0         0         0         0         0
         0         0         0         0         0         0         0         0
         0         0         0         0         0         0         0         0
         0         0         0         0         0         0         0         0
         0         0         0         0         0         0         0         0
         0         0         0         0         0         0         0         0
         0         0         0         0         0         0         0         0
         0         0         0         0         0         0         0         0
         0         0         0         0         0         0         0         0
         0         0         0         0         0         0         0         0
         0         0         0         0         0         0         0         0
         0         0         0         0         0         0         0         0
         0         0         0         0         0         0         0         0
         0         0         0         0         0         0         0         0
         0         0         0         0         0         0         0         0
         0         0         0         0         0         0         0         0
         0         0         0         0         0         0         0         0
         0         0         0         0         0         0         0         0
         0         0         0         0         0         0         0         0
         0         0         0         0         0         0         0         0
         0         0         0         0         0         0         0         0
         0         0         0         0         0         0         0         0
         0         0         0         0         0         0         0         0
         0         0         0         0         0         0         0         0
         0         0         0         0         0         0         0         0
         0         0         0         0         0         0         0         0
         0         0         0         0         0         0         0         0
         0         0         0         0         0         0         0         0
         0         0         0         0         0         0         0         0
         0         0         0         0         0         0         0         0
         0         0         0         0         0         0         0         0
         0         0         0         0         0         0         0         0
         0         0         0         0         0         0         0         0
         0         0         0         0         0         0         0         0
         0         0         0         0         0         0         0         0
         0         0         0         0         0         0         0         0
         0         0         0         0         0         0         0         0
         0         0         0         0         0         0         0         0
         0         0         0         0         0         0         0         0
         0         0         0         0         0         0         0         0
         0         0         0         0         0         0         0         0
         0         0         0         0         0         0         0         0
         0         0         0         0         0         0         0         0
         0         0         0         0         0         0         0         0
         0         0         0         0         0         0         0         0
         0         0         0         0         0         0         0         0
         0         0         0         0         0         0         0         0
         0         0         0         0         0         0         0         0
         0         0         0         0         0         0         0         0
         0         0         0         0         0         0         0         0
         0         0         0         0         0         0         0         0
         0         0         0         0         0         0         0         0
         0         0         0         0         0         0         0         0
         0         0         0         0         0         0         0         0
         0         0         0         0         0         0         0         0
         0         0         0         0         0         0         0         0
         0         0         0         0         0         0         0         0
         0         0         0         0         0         0         0         0
         0         0         0         0         0         0         0         0
         0         0         0         0         0         0         0         0
         0         0         0         0         0         0         0         0
         0         0         0         0         0         0         0         0
         0         0         0         0         0         0         0         0
         0         0         0         0         0         0         0         0
         0         0         0         0         0         0         0         0
         0         0         0         0         0         0         0         0
         0         0         0         0         0         0         0         0
         0         0         0         0         0         0         0         0
         0         0         0         0         0         0         0         0
         0         0         0         0         0         0         0         0
         0         0         0         0         0         0         0         0
         0         0         0         0         0         0         0         0
         0         0         0         0         0         0         0         0
         0         0         0         0         0         0         0         0
         0         0         0         0         0         0         0         0
         0         0         0         0         0         0         0         0
         0         0         0         0         0         0         0         0
         0         0         0         0         0         0         0         0
         0         0         0         0         0         0         0         0
         0         0         0         0         0         0         0         0
         0         0         0         0         0         0         0         0
         0         0         0         0         0         0         0         0
         0         0         0         0         0         0         0         0
         0         0         0         0         0         0         0         0
         0         0         0         0         0         0         0         0
         0         0         0         0         0         0         0         0
         0         0         0         0         0         0         0         0
         0         0         0         0         0         0         0         0
         0         0         0         0         0         0         0         0
         0         0         0         0         0         0         0         0
         0         0         0         0         0         0         0         0
         0         0         0         0         0         0         0         0
         0         0         0         0         0         0         0         0
         0         0         0         0         0         0         0         0
         0         0         0         0         0         0         0         0
         0         0         0         0         0         0         0         0
         0         0         0         0         0         0         0         0
         0         0         0         0         0         0         0         0
         0         0         0         0         0         0         0         0
         0         0         0         0         0         0         0         0
         0         0         0         0         0         0         0         0
         0         0         0         0         0         0         0         0
         0         0         0         0         0         0         0         0
         0         0         0         0         0         0         0         0
         0         0         0         0         0         0         0         0
         0         0         0         0         0         0         0         0
         0         0         0         0         0         0         0         0
         0         0         0         0         0         0         0         0
         0         0         0         0         0         0         0         0
         0         0         0         0         0         0         0         0
         0         0         0         0         0         0         0         0
         0         0         0         0         0         0         0         0
         0         0         0         0         0         0         0         0
         0         0         0         0         0         0         0         0
         0         0         0         0         0         0         0         0
         0         0         0         0         0         0         0         0
         0         0         0         0         0         0         0         0
         0         0         0         0         0         0         0         0
         0         0         0         0         0         0         0         0
         0         0         0         0         0         0         0         0
         0         0         0         0         0         0         0         0
         0         0         0         0         0         0         0         0
         0         0         0         0         0         0         0         0
         0         0         0         0         0         0         0         0
         0         0         0         0         0         0         0         0
         0         0         0         0         0         0         0         0
         0         0         0         0         0         0         0         0
         0         0         0         0         0         0         0         0
         0         0         0         0         0         0         0         0
         0         0         0         0         0         0         0         0
         0         0         0         0         0         0         0         0
         0         0         0         0         0         0         0         0
         0         0         0         0         0         0         0         0
         0         0         0         0         0         0         0         0
         0         0         0         0         0         0         0         0
         0         0         0         0         0         0         0         0
         0         0         0         0         0         0         0         0
         0         0         0         0         0         0         0         0
         0         0         0         0         0         0         0         0
         0         0         0         0         0         0         0         0
         0         0         0         0         0         0         0         0
         0         0         0         0         0         0         0         0
         0         0         0         0         0         0         0         0
         0         0         0         0         0         0         0         0
         0         0         0         0         0         0         0         0
         0         0         0         0         0         0         0         0
         0         0         0         0         0         0         0         0
         0         0         0         0         0         0         0         0
         0         0         0         0         0         0         0         0
         0         0         0         0         0         0         0         0
         0         0         0         0         0         0         0         0
         0         0         0         0         0         0         0         0
         0         0         0         0         0         0         0         0
         0         0         0         0         0         0         0         0
         0         0         0         0         0         0         0         0
         0         0         0         0         0         0         0         0
         0         0         0         0         0         0         0         0
         0         0         0         0         0         0         0         0
         0         0         0         0         0         0         0         0
         0         0         0         0         0         0         0         0
         0         0         0         0         0         0         0         0
         0         0         0         0         0         0         0         0
         0         0         0         0         0         0         0         0
         0         0         0         0         0         0         0         0
         0         0         0         0         0         0         0         0
         0         0         0         0         0         0         0         0
         0         0         0         0         0         0         0         0
         0         0         0         0         0         0         0         0
         0         0         0         0         0         0         0         0
         0         0         0         0         0         0         0         0
         0         0         0         0         0         0         0         0
         0         0         0         0         0         0         0         0
         0         0         0         0         0         0         0         0
         0         0         0         0         0         0         0         0
         0         0         0         0         0         0         0         0
         0         0         0         0         0         0         0         0
         0         0         0         0         0         0         0         0
         0         0         0         0         0         0         0         0
         0         0         0         0         0         0         0         0
         0         0         0         0         0         0         0         0
         0         0         0         0         0         0         0         0
         0         0         0         0         0         0         0         0
         0         0         0         0         0         0         0         0
         0         0         0         0         0         0         0         0
         0         0         0         0         0         0         0         0
         0         0         0         0         0         0         0         0
         0         0         0         0         0         0         0         0
         0         0         0         0         0         0         0         0
         0         0         0         0         0         0         0         0
         0         0         0         0         0         0         0         0
         0         0         0         0         0         0         0         0
         0         0         0         0         0         0         0         0
         0         0         0         0         0         0         0         0
         0         0         0         0         0         0         0         0
         0         0         0         0         0         0         0         0
         0         0         0         0         0         0         0         0
         0         0         0         0         0         0         0         0
         0         0         0         0         0         0         0         0
         0         0         0         0         0         0         0         0
         0         0         0         0         0         0         0         0
         0         0         0         0         0         0         0         0
         0         0         0         0         0         0         0         0
         0         0         0         0         0         0         0         0
         0         0         0         0         0         0         0         0
         0         0         0         0         0         0         0         0
         0         0         0         0         0         0         0         0
         0         0         0         0         0         0         0         0
         0         0         0         0         0         0         0         0
         0         0         0         0         0         0         0         0
         0         0         0         0         0         0         0         0
         0         0         0         0         0         0         0         0
         0         0         0         0         0         0         0         0
         0         0         0         0         0         0         0         0
         0         0         0         0         0         0         0         0
         0         0         0         0         0         0         0         0
         0         0         0         0         0         0         0         0
         0         0         0         0         0         0         0         0
         0         0         0         0         0         0         0         0
         0         0         0         0         0         0         0         0
         0         0         0         0         0         0         0         0
         0         0         0         0         0         0         0         0
         0         0         0         0         0         0         0         0
         0         0         0         0         0         0         0         0
         0         0         0         0         0         0         0         0
         0         0         0         0         0         0         0         0
         0         0         0         0         0         0         0         0
         0         0         0         0         0         0         0         0
         0         0         0         0         0         0         0         0
         0         0         0         0         0         0         0         0
         0         0         0         0         0         0         0         0
         0         0         0         0         0         0         0         0
         0         0         0         0         0         0         0         0
         0         0         0         0         0         0         0         0
         0         0         0         0         0         0         0         0
         0         0         0         0         0         0         0         0
         0         0         0         0         0         0         0         0
         0         0         0         0         0         0         0         0
         0         0         0         0         0         0         0         0
         0         0         0         0         0         0         0         0
         0         0         0         0         0         0         0         0
         0         0         0         0         0         0         0         0
         0         0         0         0         0         0         0         0
         0         0         0         0         0         0         0         0
         0         0         0         0         0         0         0         0
         0         0         0         0         0         0         0         0
         0         0         0         0         0         0         0         0
         0         0         0         0         0         0         0         0
         0         0         0         0         0         0         0         0
         0         0         0         0         0         0         0         0
         0         0         0         0         0         0         0         0
         0         0         0         0         0         0         0         0
         0         0         0         0         0         0         0         0
         0         0         0         0         0         0         0         0
         0         0         0         0         0         0         0         0
         0         0         0         0         0         0         0         0
         0         0         0         0         0         0         0         0
         0         0         0         0         0         0         0         0
         0         0         0         0         0         0         0         0
         0         0         0         0         0         0         0         0
         0         0         0         0         0         0         0         0
         0         0         0         0         0         0         0         0
         0         0         0         0         0         0         0         0
         0         0         0         0         0         0         0         0
         0         0         0         0         0         0         0         0
         0         0         0         0         0         0         0         0
         0         0         0         0         0         0         0         0
         0         0         0         0         0         0         0         0
         0         0         0         0         0         0         0         0
         0         0         0         0         0         0         0         0
         0         0         0         0         0         0         0         0
         0         0         0         0         0         0         0         0
         0         0         0         0         0         0         0         0
         0         0         0         0         0         0         0         0
         0         0         0         0         0         0         0         0
         0         0         0         0         0         0         0         0
         0         0         0         0         0         0         0         0
         0         0         0         0         0         0         0         0
         0         0         0         0         0         0         0         0
         0         0         0         0         0         0         0         0
         0         0         0         0         0         0         0         0
         0         0         0         0         0         0         0         0
         0         0         0         0         0         0         0         0
         0         0         0         0         0         0         0         0
         0         0         0         0         0         0         0         0
         0         0         0         0         0         0         0         0
         0         0         0         0         0         0         0         0
         0         0         0         0         0         0         0         0
         0         0         0         0         0         0         0         0
         0         0         0         0         0         0         0         0
         0         0         0         0         0         0         0         0
         0         0         0         0         0         0         0         0
         0         0         0         0         0         0         0         0
         0         0         0         0         0         0         0         0
         0         0         0         0         0         0         0         0
         0         0         0         0         0         0         0         0
         0         0         0         0         0         0         0         0
         0         0         0         0         0         0         0         0
         0         0         0         0         0         0         0         0
         0         0         0         0         0         0         0         0
         0         0         0         0         0         0         0         0
         0         0         0         0         0         0         0         0
         0         0         0         0         0         0         0         0
         0         0         0         0         0         0         0         0
         0         0         0         0         0         0         0         0
         0         0         0         0         0         0         0         0
         0         0         0         0         0         0         0         0
         0         0         0         0         0         0         0         0
         0         0         0         0         0         0         0         0
         0         0         0         0         0         0         0         0
         0         0         0         0         0         0         0         0
         0         0         0         0         0         0         0         0
         0         0         0         0         0         0         0         0
         0         0         0         0         0         0         0         0
         0         0         0         0         0         0         0         0
         0         0         0         0         0         0         0         0
         0         0         0         0         0         0         0         0
         0         0         0         0         0         0         0         0
         0         0         0         0         0         0         0         0
         0         0         0         0         0         0         0         0
         0         0         0         0         0         0         0         0
         0         0         0         0         0         0         0         0
         0         0         0         0         0         0         0         0
         0         0         0         0         0         0         0         0
         0         0         0         0         0         0         0         0
         0         0         0         0         0         0         0         0
         0         0         0         0         0         0         0         0
         0         0         0         0         0         0         0         0
         0         0         0         0         0         0         0         0
         0         0         0         0         0         0         0         0
         0         0         0         0         0         0         0         0
         0         0         0         0         0         0         0         0
         0         0         0         0         0         0         0         0
         0         0         0         0         0         0         0         0
         0         0         0         0         0         0         0         0
         0         0         0         0         0         0         0         0
         0         0         0         0         0         0         0         0
         0         0         0         0         0         0         0         0
         0         0         0         0         0         0         0         0
         0         0         0         0         0         0         0         0
         0         0         0         0         0         0         0         0
         0         0         0         0         0         0         0         0
         0         0         0         0         0         0         0         0
         0         0         0         0         0         0         0         0
         0         0         0         0         0         0         0         0
         0         0         0         0         0         0         0         0
         0         0         0         0         0         0         0         0
         0         0         0         0         0         0         0         0
         0         0         0         0         0         0         0         0
         0         0         0         0         0         0         0         0
         0         0         0         0         0         0         0         0
         0         0         0         0         0         0         0         0
         0         0         0         0         0         0         0         0
         0         0         0         0         0         0         0         0
         0         0         0         0         0         0         0         0
         0         0         0         0         0         0         0         0
         0         0         0         0         0         0         0         0
         0         0         0         0         0         0         0         0
         0         0         0         0         0         0         0         0
         0         0         0         0         0         0         0         0
         0         0         0         0         0         0         0         0
         0         0         0         0         0         0         0         0
         0         0         0         0         0         0         0         0
         0         0         0         0         0         0         0         0
         0         0         0         0         0         0         0         0
         0         0         0         0         0         0         0         0
         0         0         0         0         0         0         0         0
         0         0         0         0         0         0         0         0
         0         0         0         0         0         0         0         0
         0         0         0         0         0         0         0         0
         0         0         0         0         0         0         0         0
         0         0         0         0         0         0         0         0
         0         0         0         0         0         0         0         0
         0         0         0         0         0         0         0         0
         0         0         0         0         0         0         0         0
         0         0         0         0         0         0         0         0
         0         0         0         0         0         0         0         0
         0         0         0         0         0         0         0         0
         0         0         0         0         0         0         0         0
         0         0         0         0         0         0         0         0
         0         0         0         0         0         0         0         0
         0         0         0         0         0         0         0         0
         0         0         0         0         0         0         0         0
         0         0         0         0         0         0         0         0
         0         0         0         0         0         0         0         0
         0         0         0         0         0         0         0         0
         0         0         0         0         0         0         0         0
         0         0         0         0         0         0         0         0
         0         0         0         0         0         0         0         0
         0         0         0         0         0         0         0         0
         0         0         0         0         0         0         0         0
         0         0         0         0         0         0         0         0
         0         0         0         0         0         0         0         0
         0         0         0         0         0         0         0         0
         0         0         0         0         0         0         0         0
         0         0         0         0         0         0         0         0
         0         0         0         0         0         0         0         0
         0         0         0         0         0         0         0         0
         0         0         0         0         0         0         0         0
         0         0         0         0         0         0         0         0
         0         0         0         0         0         0         0         0
         0         0         0         0         0         0         0         0
         0         0         0         0         0         0         0         0
         0         0         0         0         0         0         0         0
         0         0         0         0         0         0         0         0
         0         0         0         0         0         0         0         0
         0         0         0         0         0         0         0         0
         0         0         0         0         0         0         0         0
         0         0         0         0         0         0         0         0
         0         0         0         0         0         0         0         0
         0         0         0         0         0         0         0         0
         0         0         0         0         0         0         0         0
         0         0         0         0         0         0         0         0
         0         0         0         0         0         0         0         0
         0         0         0         0         0         0         0         0
         0         0         0         0         0         0         0         0
         0         0         0         0         0         0         0         0
         0         0         0         0         0         0         0         0
         0         0         0         0         0         0         0         0
         0         0         0         0         0         0         0         0
         0         0         0         0         0         0         0         0
         0         0         0         0         0         0         0         0
         0         0         0         0         0         0         0         0
         0         0         0         0         0         0         0         0
         0         0         0         0         0         0         0         0
         0         0         0         0         0         0         0         0
         0         0         0         0         0         0         0         0
         0         0         0         0         0         0         0         0
         0         0         0         0         0         0         0         0
         0         0         0         0         0         0         0         0
         0         0         0         0         0         0         0         0
         0         0         0         0         0         0         0         0
         0         0         0         0         0         0         0         0
         0         0         0         0         0         0         0         0
         0         0         0         0         0         0         0         0
         0         0         0         0         0         0         0         0
         0         0         0         0         0         0         0         0
         0         0         0         0         0         0         0         0
         0         0         0         0         0         0         0         0
         0         0         0         0         0         0         0         0
         0         0         0         0         0         0         0         0
         0         0         0         0         0         0         0         0
         0         0         0         0         0         0         0         0
         0         0         0         0         0         0         0         0
         0         0         0         0         0         0         0         0
         0         0         0         0         0         0         0         0
         0         0         0         0         0         0         0         0
         0         0         0         0         0         0         0         0
         0         0         0         0         0         0         0         0
         0         0         0         0         0         0         0         0
         0         0         0         0         0         0         0         0
         0         0         0         0         0         0         0         0
         0         0         0         0         0         0         0         0
         0         0         0         0         0         0         0         0
         0         0         0         0         0         0         0         0
         0         0         0         0         0         0         0         0
         0         0         0         0         0         0         0         0
         0         0         0         0         0         0         0         0
         0         0         0         0         0         0         0         0
         0         0         0         0         0         0         0         0
         0         0         0         0         0         0         0         0
         0         0         0         0         0         0         0         0
         0         0         0         0         0         0         0         0
         0         0         0         0         0         0         0         0
         0         0         0         0         0         0         0         0
         0         0         0         0         0         0         0         0
         0         0         0         0         0         0         0         0
         0         0         0         0         0         0         0         0
         0         0         0         0         0         0         0         0
         0         0         0         0         0         0         0         0
         0         0         0         0         0         0         0         0
         0         0         0         0         0         0         0         0
         0         0         0         0         0         0         0         0
         0         0         0         0         0         0         0         0
         0         0         0         0         0         0         0         0
         0         0         0         0         0         0         0         0
         0         0         0         0         0         0         0         0
         0         0         0         0         0         0         0         0
         0         0         0         0         0         0         0         0
         0         0         0         0         0         0         0         0
         0         0         0         0         0         0         0         0
         0         0         0         0         0         0         0         0
         0         0         0         0         0         0         0         0
         0         0         0         0         0         0         0         0
         0         0         0         0         0         0         0         0
         0         0         0         0         0         0         0         0
         0         0         0         0         0         0         0         0
         0         0         0         0         0         0         0         0
         0         0         0         0         0         0         0         0
         0         0         0         0         0         0         0         0
         0         0         0         0         0         0         0         0
         0         0         0         0         0         0         0         0
         0         0         0         0         0         0         0         0
         0         0         0         0         0         0         0         0
         0         0         0         0         0         0         0         0
         0         0         0         0         0         0         0         0
         0         0         0         0         0         0         0         0
         0         0         0         0         0         0         0         0
         0         0         0         0         0         0         0         0
         0         0         0         0         0         0         0         0
         0         0         0         0         0         0         0         0
         0         0         0         0         0         0         0         0
         0         0         0         0         0         0         0         0
         0         0         0         0         0         0         0         0
         0         0         0         0         0         0         0         0
         0         0         0         0         0         0         0         0
         0         0         0         0         0         0         0         0
         0         0         0         0         0         0         0         0
         0         0         0         0         0         0         0         0
         0         0         0         0         0         0         0         0
         0         0         0         0         0         0         0         0
         0         0         0         0         0         0         0         0
         0         0         0         0         0         0         0         0
         0         0         0         0         0         0         0         0
         0         0         0         0         0         0         0         0
         0         0         0         0         0         0         0         0
         0         0         0         0         0         0         0         0
         0         0         0         0         0         0         0         0
         0         0         0         0         0         0         0         0
         0         0         0         0         0         0         0         0
         0         0         0         0         0         0         0         0
         0         0         0         0         0         0         0         0
         0         0         0         0         0         0         0         0
         0         0         0         0         0         0         0         0
         0         0         0         0         0         0         0         0
         0         0         0         0         0         0         0         0
         0         0         0         0         0         0         0         0
         0         0         0         0         0         0         0         0
         0         0         0         0         0         0         0         0
         0         0         0         0         0         0         0         0
         0         0         0         0         0         0         0         0
         0         0         0         0         0         0         0         0
         0         0         0         0         0         0         0         0
         0         0         0         0         0         0         0         0
         0         0         0         0         0         0         0         0
         0         0         0         0         0         0         0         0
         0         0         0         0         0         0         0         0
         0         0         0         0         0         0         0         0
         0         0         0         0         0         0         0         0
         0         0         0         0         0         0         0         0
         0         0         0         0         0         0         0         0
         0         0         0         0         0         0         0         0
         0         0         0         0         0         0         0         0
         0         0         0         0         0         0         0         0
         0         0         0         0         0         0         0         0
         0         0         0         0         0         0         0         0
         0         0         0         0         0         0         0         0
         0         0         0         0         0         0         0         0
         0         0         0         0         0         0         0         0
         0         0         0         0         0         0         0         0
         0         0         0         0         0         0         0         0
         0         0         0         0         0         0         0         0
         0         0         0         0         0         0         0         0
         0         0         0         0         0         0         0         0
         0         0         0         0         0         0         0         0
         0         0         0         0         0         0         0         0
         0         0         0         0         0         0         0         0
         0         0         0         0         0         0         0         0
         0         0         0         0         0         0         0         0
         0         0         0         0         0         0         0         0
         0         0         0         0         0         0         0         0
         0         0         0         0         0         0         0         0
         0         0         0         0         0         0         0         0
         0         0         0         0         0         0         0         0
         0         0         0         0         0         0         0         0
         0         0         0         0         0         0         0         0
         0         0         0         0         0         0         0         0
         0         0         0         0         0         0         0         0
         0         0         0         0         0         0         0         0
         0         0         0         0         0         0         0         0
         0         0         0         0         0         0         0         0
         0         0         0         0         0         0         0         0
         0         0         0         0         0         0         0         0
         0         0         0         0         0         0         0         0
         0         0         0         0         0         0         0         0
         0         0         0         0         0         0         0         0
         0         0         0         0         0         0         0         0
         0         0         0         0         0         0         0         0
         0         0         0         0         0         0         0         0
         0         0         0         0         0         0         0         0
         0         0         0         0         0         0         0         0
         0         0         0         0         0         0         0         0
         0         0         0         0         0         0         0         0
         0         0         0         0         0         0         0         0
         0         0         0         0         0         0         0         0
         0         0         0         0         0         0         0         0
         0         0         0         0         0         0         0         0
         0         0         0         0         0         0         0         0
         0         0         0         0         0         0         0         0
         0         0         0         0         0         0         0         0
         0         0         0         0         0         0         0         0
         0         0         0         0         0         0         0         0
         0         0         0         0         0         0         0         0
         0         0         0         0         0         0         0         0
         0         0         0         0         0         0         0         0
         0         0         0         0         0         0         0         0
         0         0         0         0         0         0         0         0
         0         0         0         0         0         0         0         0
         0         0         0         0         0         0         0         0
         0         0         0         0         0         0         0         0
         0         0         0         0         0         0         0         0
         0         0         0         0         0         0         0         0
         0         0         0         0         0         0         0         0
         0         0         0         0         0         0         0         0
         0         0         0         0         0         0         0         0
         0         0         0         0         0         0         0         0
         0         0         0         0         0         0         0         0
         0         0         0         0         0         0         0         0
         0         0         0         0         0         0         0         0
         0         0         0         0         0         0         0         0
         0         0         0         0         0         0         0         0
         0         0         0         0         0         0         0         0
         0         0         0         0         0         0         0         0
         0         0         0         0         0         0         0         0
         0         0         0         0         0         0         0         0
         0         0         0         0         0         0         0         0
         0         0         0         0         0         0         0         0
         0         0         0         0         0         0         0         0
         0         0         0         0         0         0         0         0
         0         0         0         0         0         0         0         0
         0         0         0         0         0         0         0         0
         0         0         0         0         0         0         0         0
         0         0         0         0         0         0         0         0
         0         0         0         0         0         0         0         0
         0         0         0         0         0         0         0         0
         0         0         0         0         0         0         0         0
         0         0         0         0         0         0         0         0
         0         0         0         0         0         0         0         0
         0         0         0         0         0         0         0         0
         0         0         0         0         0         0         0         0
         0         0         0         0         0         0         0         0
         0         0         0         0         0         0         0         0
         0         0         0         0         0         0         0         0
         0         0         0         0         0         0         0         0
         0         0         0         0         0         0         0         0
         0         0         0         0         0         0         0         0
         0         0         0         0         0         0         0         0
         0         0         0         0         0         0         0         0
         0         0         0         0         0         0         0         0
         0         0         0         0         0         0         0         0
         0         0         0         0         0         0         0         0
         0         0         0         0         0         0         0         0
         0         0         0         0         0         0         0         0
         0         0         0         0         0         0         0         0
         0         0         0         0         0         0         0         0
         0         0         0         0         0         0         0         0
         0         0         0         0         0         0         0         0
         0         0         0         0         0         0         0         0
         0         0         0         0         0         0         0         0
         0         0         0         0         0         0         0         0
         0         0         0         0         0         0         0         0
         0         0         0         0         0         0         0         0
         0         0         0         0         0         0         0         0
         0         0         0         0         0         0         0         0
         0         0         0         0         0         0         0         0
         0         0         0         0         0         0         0         0
         0         0         0         0         0         0         0         0
         0         0         0         0         0         0         0         0
         0         0         0         0         0         0         0         0
         0         0         0         0         0         0         0         0
         0         0         0         0         0         0         0         0
         0         0         0         0         0         0         0         0
         0         0         0         0         0         0         0         0
         0         0         0         0         0         0         0         0
         0         0         0         0         0         0         0         0
         0         0         0         0         0         0         0         0
         0         0         0         0         0         0         0         0
         0         0         0         0         0         0         0         0
         0         0         0         0         0         0         0         0
         0         0         0         0         0         0         0         0
         0         0         0         0         0         0         0         0
         0         0         0         0         0         0         0         0
         0         0         0         0         0         0         0         0
         0         0         0         0         0         0         0         0
         0         0         0         0         0         0         0         0
         0         0         0         0         0         0         0         0
         0         0         0         0         0         0         0         0
         0         0         0         0         0         0         0         0
         0         0         0         0         0         0         0         0
         0         0         0         0         0         0         0         0
         0         0         0         0         0         0         0         0
         0         0         0         0         0         0         0         0
         0         0         0         0         0         0         0         0
         0         0         0         0         0         0         0         0
         0         0         0         0         0         0         0         0
         0         0         0         0         0         0         0         0
         0         0         0         0         0         0         0         0
         0         0         0         0         0         0         0         0
         0         0         0         0         0         0         0         0
         0         0         0         0         0         0         0         0
         0         0         0         0         0         0         0         0
         0         0         0         0         0         0         0         0
         0         0         0         0         0         0         0         0
         0         0         0         0         0         0         0         0
         0         0         0         0         0         0         0         0
         0         0         0         0         0         0         0         0
         0         0         0         0         0         0         0         0
         0         0         0         0         0         0         0         0
         0         0         0         0         0         0         0         0
         0         0         0         0         0         0         0         0
         0         0         0         0         0         0         0         0
         0         0         0         0         0         0         0         0
         0         0         0         0         0         0         0         0
         0         0         0         0         0         0         0         0
         0         0         0         0         0         0         0         0
         0         0         0         0         0         0         0         0
         0         0         0         0         0         0         0         0
         0         0         0         0         0         0         0         0
         0         0         0         0         0         0         0         0
         0         0         0         0         0         0         0         0
         0         0         0         0         0         0         0         0
         0         0         0         0         0         0         0         0
         0         0         0         0         0         0         0         0
         0         0         0         0         0         0         0         0
         0         0         0         0         0         0         0         0
         0         0         0         0         0         0         0         0
         0         0         0         0         0         0         0         0
         0         0         0         0         0         0         0         0
         0         0         0         0         0         0         0         0
         0         0         0         0         0         0         0         0
         0         0         0         0         0         0         0         0
         0         0         0         0         0         0         0         0
         0         0         0         0         0         0         0         0
         0         0         0         0         0         0         0         0
         0         0         0         0         0         0         0         0
         0         0         0         0         0         0         0         0
         0         0         0         0         0         0         0         0
         0         0         0         0         0         0         0         0
         0         0         0         0         0         0         0         0
         0         0         0         0         0         0         0         0
         0         0         0         0         0         0         0         0
         0         0         0         0         0         0         0         0
         0         0         0         0         0         0         0         0
         0         0         0         0         0         0         0         0
         0         0         0         0         0         0         0         0
         0         0         0         0         0         0         0         0
         0         0         0         0         0         0         0         0
         0         0         0         0         0         0         0         0
         0         0         0         0         0         0         0         0
         0         0         0         0         0         0         0         0
         0         0         0         0         0         0         0         0
         0         0         0         0         0         0         0         0
         0         0         0         0         0         0         0         0
         0         0         0         0         0         0         0         0
         0         0         0         0         0         0         0         0
         0         0         0         0         0         0         0         0
         0         0         0         0         0         0         0         0
         0         0         0         0         0         0         0         0
         0         0         0         0         0         0         0         0
         0         0         0         0         0         0         0         0
         0         0         0         0         0         0         0         0
         0         0         0         0         0         0         0         0
         0         0         0         0         0         0         0         0
         0         0         0         0         0         0         0         0
         0         0         0         0         0         0         0         0
         0         0         0         0         0         0         0         0
         0         0         0         0         0         0         0         0
         0         0         0         0         0         0         0         0
         0         0         0         0         0         0         0         0
         0         0         0         0         0         0         0         0
         0         0         0         0         0         0         0         0
         0         0         0         0         0         0         0         0
         0         0         0         0         0         0         0         0
         0         0         0         0         0         0         0         0
         0         0         0         0         0         0         0         0
         0         0         0         0         0         0         0         0
         0         0         0         0         0         0         0         0
         0         0         0         0         0         0         0         0
         0         0         0         0         0         0         0         0
         0         0         0         0         0         0         0         0
         0         0         0         0         0         0         0         0
         0         0         0         0         0         0         0         0
         0         0         0         0         0         0         0         0
         0         0         0         0         0         0         0         0
         0         0         0         0         0         0         0         0
         0         0         0         0         0         0         0         0
         0         0         0         0         0         0         0         0
         0         0         0         0         0         0         0         0
         0         0         0         0         0         0         0         0
         0         0         0         0         0         0         0         0
         0         0         0         0         0         0         0         0
         0         0         0         0         0         0         0         0
         0         0         0         0         0         0         0         0
         0         0         0         0         0         0         0         0
         0         0         0         0         0         0         0         0
         0         0         0         0         0         0         0         0
         0         0         0         0         0         0         0         0
         0         0         0         0         0         0         0         0
         0         0         0         0         0         0         0         0
         0         0         0         0         0         0         0         0
         0         0         0         0         0         0         0         0
         0         0         0         0         0         0         0         0
         0         0         0         0         0         0         0         0
         0         0         0         0         0         0         0         0
         0         0         0         0         0         0         0         0
         0         0         0         0         0         0         0         0
         0         0         0         0         0         0         0         0
         0         0         0         0         0         0         0         0
         0         0         0         0         0         0         0         0
         0         0         0         0         0         0         0         0
         0         0         0         0         0         0         0         0
         0         0         0         0         0         0         0         0
         0         0         0         0         0         0         0         0
         0         0         0         0         0         0         0         0
         0         0         0         0         0         0         0         0
         0         0         0         0         0         0         0         0
         0         0         0         0         0         0         0         0
         0         0         0         0         0         0         0         0
         0         0         0         0         0         0         0         0
         0         0         0         0         0         0         0         0
         0         0         0         0         0         0         0         0
         0         0         0         0         0         0         0         0
         0         0         0         0         0         0         0         0
         0         0         0         0         0         0         0         0
         0         0         0         0         0         0         0         0
         0         0         0         0         0         0         0         0
         0         0         0         0         0         0         0         0
         0         0         0         0         0         0         0         0
         0         0         0         0         0         0         0         0
         0         0         0         0         0         0         0         0
         0         0         0         0         0         0         0         0
         0         0         0         0         0         0         0         0
         0         0         0         0         0         0         0         0
         0         0         0         0         0         0         0         0
         0         0         0         0         0         0         0         0
         0         0         0         0         0         0         0         0
         0         0         0         0         0         0         0         0
         0         0         0         0         0         0         0         0
         0         0         0         0         0         0         0         0
         0         0         0         0         0         0         0         0
         0         0         0         0         0         0         0         0
         0         0         0         0         0         0         0         0
         0         0         0         0         0         0         0         0
         0         0         0         0         0         0         0         0
         0         0         0         0         0         0         0         0
         0         0         0         0         0         0         0         0
         0         0         0         0         0         0         0         0
         0         0         0         0         0         0         0         0
         0         0         0         0         0         0         0         0
         0         0         0         0         0         0         0         0
         0         0         0         0         0         0         0         0
         0         0         0         0         0         0         0         0
         0         0         0         0         0         0         0         0
         0         0         0         0         0         0         0         0
         0         0         0         0         0         0         0         0
         0         0         0         0         0         0         0         0
         0         0         0         0         0         0         0         0
         0         0         0         0         0         0         0         0
         0         0         0         0         0         0         0         0
         0         0         0         0         0         0         0         0
         0         0         0         0         0         0         0         0
         0         0         0         0         0         0         0         0
         0         0         0         0         0         0         0         0
         0         0         0         0         0         0         0         0
         0         0         0         0         0         0         0         0
         0         0         0         0         0         0         0         0
         0         0         0         0         0         0         0         0
         0         0         0         0         0         0         0         0
         0         0         0         0         0         0         0         0
         0         0         0         0         0         0         0         0
         0         0         0         0         0         0         0         0
         0         0         0         0         0         0         0         0
         0         0         0         0         0         0         0         0
         0         0         0         0         0         0         0         0
         0         0         0         0         0         0         0         0
         0         0         0         0         0         0         0         0
         0         0         0         0         0         0         0         0
         0         0         0         0         0         0         0         0
         0         0         0         0         0         0         0         0
         0         0         0         0         0         0         0         0
         0         0         0         0         0         0         0         0
         0         0         0         0         0         0         0         0
         0         0         0         0         0         0         0         0
         0         0         0         0         0         0         0         0
         0         0         0         0         0         0         0         0
         0         0         0         0         0         0         0         0
         0         0         0         0         0         0         0         0
         0         0         0         0         0         0         0         0
         0         0         0         0         0         0         0         0
         0         0         0         0         0         0         0         0
         0         0         0         0         0         0         0         0
         0         0         0         0         0         0         0         0
         0         0         0         0         0         0         0         0
         0         0         0         0         0         0         0         0
         0         0         0         0         0         0         0         0
         0         0         0         0         0         0         0         0
         0         0         0         0         0         0         0         0
         0         0         0         0         0         0         0         0
         0         0         0         0         0         0         0         0
         0         0         0         0         0         0         0         0
         0         0         0         0         0         0         0         0
         0         0         0         0         0         0         0         0
         0         0         0         0         0         0         0         0
         0         0         0         0         0         0         0         0
         0         0         0         0         0         0         0         0
         0         0         0         0         0         0         0         0
         0         0         0         0         0         0         0         0
         0         0         0         0         0         0         0         0
         0         0         0         0         0         0         0         0
         0         0         0         0         0         0         0         0
         0         0         0         0         0         0         0         0
         0         0         0         0         0         0         0         0
         0         0         0         0         0         0         0         0
         0         0         0         0         0         0         0         0
         0         0         0         0         0         0         0         0
         0         0         0         0         0         0         0         0
         0         0         0         0         0         0         0         0
         0         0         0         0         0         0         0         0
         0         0         0         0         0         0         0         0
         0         0         0         0         0         0         0         0
         0         0         0         0         0         0         0         0
         0         0         0         0         0         0         0         0
         0         0         0         0         0         0         0         0
         0         0         0         0         0         0         0         0
         0         0         0         0         0         0         0         0
         0         0         0         0         0         0         0         0
         0         0         0         0         0         0         0         0
         0         0         0         0         0         0         0         0
         0         0         0         0         0         0         0         0
         0         0         0         0         0         0         0         0
         0         0         0         0         0         0         0         0
         0         0         0         0         0         0         0         0
         0         0         0         0         0         0         0         0
         0         0         0         0         0         0         0         0
         0         0         0         0         0         0         0         0
         0         0         0         0         0         0         0         0
         0         0         0         0         0         0         0         0
         0         0         0         0         0         0         0         0
         0         0         0         0         0         0         0         0
         0         0         0         0         0         0         0         0
         0         0         0         0         0         0         0         0
         0         0         0         0         0         0         0         0
         0         0         0         0         0         0         0         0
         0         0         0         0         0         0         0         0
         0         0         0         0         0         0         0         0
         0         0         0         0         0         0         0         0
         0         0         0         0         0         0         0         0
         0         0         0         0         0         0         0         0
         0         0         0         0         0         0         0         0
         0         0         0         0         0         0         0         0
         0         0         0         0         0         0         0         0
         0         0         0         0         0         0         0         0
         0         0         0         0         0         0         0         0
         0         0         0         0         0         0         0         0
         0         0         0         0         0         0         0         0
         0         0         0         0         0         0         0         0
         0         0         0         0         0         0         0         0
         0         0         0         0         0         0         0         0
         0         0         0         0         0         0         0         0
         0         0         0         0         0         0         0         0
         0         0         0         0         0         0         0         0
         0         0         0         0         0         0         0         0
         0         0         0         0         0         0         0         0
         0         0         0         0         0         0         0         0
         0         0         0         0         0         0         0         0
         0         0         0         0         0         0         0         0
         0         0         0         0         0         0         0         0
         0         0         0         0         0         0         0         0
         0         0         0         0         0         0         0         0
         0         0         0         0         0         0         0         0
         0         0         0         0         0         0         0         0
         0         0         0         0         0         0         0         0
         0         0         0         0         0         0         0         0
         0         0         0         0         0         0         0         0
         0         0         0         0         0         0         0         0
         0         0         0         0         0         0         0         0
         0         0         0         0         0         0         0         0
         0         0         0         0         0         0         0         0
         0         0         0         0         0         0         0         0
         0         0         0         0         0         0         0         0
         0         0         0         0         0         0         0         0
         0         0         0         0         0         0         0         0
         0         0         0         0         0         0         0         0
         0         0         0         0         0         0         0         0
         0         0         0         0         0         0         0         0
         0         0         0         0         0         0         0         0
         0         0         0         0         0         0         0         0
         0         0         0         0         0         0         0         0
         0         0         0         0         0         0         0         0
         0         0         0         0         0         0         0         0
         0         0         0         0         0         0         0         0
         0         0         0         0         0         0         0         0
         0         0         0         0         0         0         0         0
         0         0         0         0         0         0         0         0
         0         0         0         0         0         0         0         0
         0         0         0         0         0         0         0         0
         0         0         0         0         0         0         0         0
         0         0         0         0         0         0         0         0
         0         0         0         0         0         0         0         0
         0         0         0         0         0         0         0         0
         0         0         0         0         0         0         0         0
         0         0         0         0         0         0         0         0
         0         0         0         0         0         0         0         0
         0         0         0         0         0         0         0         0
         0         0         0         0         0         0         0         0
         0         0         0         0         0         0         0         0
         0         0         0         0         0         0         0         0
         0         0         0         0         0         0         0         0
         0         0         0         0         0         0         0         0
         0         0         0         0         0         0         0         0
         0         0         0         0         0         0         0         0
         0         0         0         0         0         0         0         0
         0         0         0         0         0         0         0         0
         0         0         0         0         0         0         0         0
         0         0         0         0         0         0         0         0
         0         0         0         0         0         0         0         0
         0         0         0         0         0         0         0         0
         0         0         0         0         0         0         0         0
         0         0         0         0         0         0         0         0
         0         0         0         0         0         0         0         0
         0         0         0         0         0         0         0         0
         0         0         0         0         0         0         0         0
         0         0         0         0         0         0         0         0
         0         0         0         0         0         0         0         0
         0         0         0         0         0         0         0         0
         0         0         0         0         0         0         0         0
         0         0         0         0         0         0         0         0
         0         0         0         0         0         0         0         0
         0         0         0         0         0         0         0         0
         0         0         0         0         0         0         0         0
         0         0         0         0         0         0         0         0
         0         0         0         0         0         0         0         0
         0         0         0         0         0         0         0         0
         0         0         0         0         0         0         0         0
         0         0         0         0         0         0         0         0
         0         0         0         0         0         0         0         0
         0         0         0         0         0         0         0         0
         0         0         0         0         0         0         0         0
         0         0         0         0         0         0         0         0
         0         0         0         0         0         0         0         0
         0         0         0         0         0         0         0         0
         0         0         0         0         0         0         0         0
         0         0         0         0         0         0         0         0
         0         0         0         0         0         0         0         0
         0         0         0         0         0         0         0         0
         0         0         0         0         0         0         0         0
         0         0         0         0         0         0         0         0
         0         0         0         0         0         0         0         0
         0         0         0         0         0         0         0         0
         0         0         0         0         0         0         0         0
         0         0         0         0         0         0         0         0
         0         0         0         0         0         0         0         0
         0         0         0         0         0         0         0         0
         0         0         0         0         0         0         0         0
         0         0         0         0         0         0         0         0
         0         0         0         0         0         0         0         0
         0         0         0         0         0         0         0         0
         0         0         0         0         0         0         0         0
         0         0         0         0         0         0         0         0
         0         0         0         0         0         0         0         0
         0         0         0         0         0         0         0         0
         0         0         0         0         0         0         0         0
         0         0         0         0         0         0         0         0
         0         0         0         0         0         0         0         0
         0         0         0         0         0         0         0         0
         0         0         0         0         0         0         0         0
         0         0         0         0         0         0         0         0
         0         0         0         0         0         0         0         0
         0         0         0         0         0         0         0         0
         0         0         0         0         0         0         0         0
         0         0         0         0         0         0         0         0
         0         0         0         0         0         0         0         0
         0         0         0         0         0         0         0         0
         0         0         0         0         0         0         0         0
         0         0         0         0         0         0         0         0
         0         0         0         0         0         0         0         0
         0         0         0         0         0         0         0         0
         0         0         0         0         0         0         0         0
         0         0         0         0         0         0         0         0
         0         0         0         0         0         0         0         0
         0         0         0         0         0         0         0         0
         0         0         0         0         0         0         0         0
         0         0         0         0         0         0         0         0
         0         0         0         0         0         0         0         0
         0         0         0         0         0         0         0         0
         0         0         0         0         0         0         0         0
         0         0         0         0         0         0         0         0
         0         0         0         0         0         0         0         0
         0         0         0         0         0         0         0         0
         0         0         0         0         0         0         0         0
         0         0         0         0         0         0         0         0
         0         0         0         0         0         0         0         0
         0         0         0         0         0         0         0         0
         0         0         0         0         0         0         0         0
         0         0         0         0         0         0         0         0
         0         0         0         0         0         0         0         0
         0         0         0         0         0         0         0         0
         0         0         0         0         0         0         0         0
         0         0         0         0         0         0         0         0
         0         0         0         0         0         0         0         0
         0         0         0         0         0         0         0         0
         0         0         0         0         0         0         0         0
         0         0         0         0         0         0         0         0
         0         0         0         0         0         0         0         0
         0         0         0         0         0         0         0         0
         0         0         0         0         0         0         0         0
         0         0         0         0         0         0         0         0
         0         0         0         0         0         0         0         0
         0         0         0         0         0         0         0         0
         0         0         0         0         0         0         0         0
         0         0         0         0         0         0         0         0
         0         0         0         0         0         0         0         0
         0         0         0         0         0         0         0         0
         0         0         0         0         0         0         0         0
         0         0         0         0         0         0         0         0
         0         0         0         0         0         0         0         0
         0         0         0         0         0         0         0         0
         0         0         0         0         0         0         0         0
         0         0         0         0         0         0         0         0
         0         0         0         0         0         0         0         0
         0         0         0         0         0         0         0         0
         0         0         0         0         0         0         0         0
         0         0         0         0         0         0         0         0
         0         0         0         0         0         0         0         0
         0         0         0         0         0         0         0         0
         0         0         0         0         0         0         0         0
         0         0         0         0         0         0         0         0
         0         0         0         0         0         0         0         0
         0         0         0         0         0         0         0         0
         0         0         0         0         0         0         0         0
         0         0         0         0         0         0         0         0
         0         0         0         0         0         0         0         0
         0         0         0         0         0         0         0         0
         0         0         0         0         0         0         0         0
         0         0         0         0         0         0         0         0
         0         0         0         0         0         0         0         0
         0         0         0         0         0         0         0         0
         0         0         0         0         0         0         0         0
         0         0         0         0         0         0         0         0
         0         0         0         0         0         0         0         0
         0         0         0         0         0         0         0         0
         0         0         0         0         0         0         0         0
         0         0         0         0         0         0         0         0
         0         0         0         0         0         0         0         0
         0         0         0         0         0         0         0         0
         0         0         0         0         0         0         0         0
         0         0         0         0         0         0         0         0
         0         0         0         0         0         0         0         0
         0         0         0         0         0         0         0         0
         0         0         0         0         0         0         0         0
         0         0         0         0         0         0         0         0
         0         0         0         0         0         0         0         0
         0         0         0         0         0         0         0         0
         0         0         0         0         0         0         0         0
         0         0         0         0         0         0         0         0
         0         0         0         0         0         0         0         0
         0         0         0         0         0         0         0         0
         0         0         0         0         0         0         0         0
         0         0         0         0         0         0         0         0
         0         0         0         0         0         0         0         0
         0         0         0         0         0         0         0         0
         0         0         0         0         0         0         0         0
         0         0         0         0         0         0         0         0
         0         0         0         0         0         0         0         0
         0         0         0         0         0         0         0         0
         0         0         0         0         0         0         0         0
         0         0         0         0         0         0         0         0
         0         0         0         0         0         0         0         0
         0         0         0         0         0         0         0         0
         0         0         0         0         0         0         0         0
         0         0         0         0         0         0         0         0
         0         0         0         0         0         0         0         0
         0         0         0         0         0         0         0         0
         0         0         0         0         0         0         0         0
         0         0         0         0         0         0         0         0
         0         0         0         0         0         0         0         0
         0         0         0         0         0         0         0         0
         0         0         0         0         0         0         0         0
         0         0         0         0         0         0         0         0
         0         0         0         0         0         0         0         0
         0         0         0         0         0         0         0         0
         0         0         0         0         0         0         0         0
         0         0         0         0         0         0         0         0
         0         0         0         0         0         0         0         0
         0         0         0         0         0         0         0         0
         0         0         0         0         0         0         0         0
         0         0         0         0         0         0         0         0
         0         0         0         0         0         0         0         0
         0         0         0         0         0         0         0         0
         0         0         0         0         0         0         0         0
         0         0         0         0         0         0         0         0
         0         0         0         0         0         0         0         0
         0         0         0         0         0         0         0         0
         0         0         0         0         0         0         0         0
         0         0         0         0         0         0         0         0
         0         0         0         0         0         0         0         0
         0         0         0         0         0         0         0         0
         0         0         0         0         0         0         0         0
         0         0         0         0         0         0         0         0
         0         0         0         0         0         0         0         0
         0         0         0         0         0         0         0         0
         0         0         0         0         0         0         0         0
         0         0         0         0         0         0         0         0
         0         0         0         0         0         0         0         0
         0         0         0         0         0         0         0         0
         0         0         0         0         0         0         0         0
         0         0         0         0         0         0         0         0
         0         0         0         0         0         0         0         0
         0         0         0         0         0         0         0         0
         0         0         0         0         0         0         0         0
         0         0         0         0         0         0         0         0
         0         0         0         0         0         0         0         0
         0         0         0         0         0         0         0         0
         0         0         0         0         0         0         0         0
         0         0         0         0         0         0         0         0
         0         0         0         0         0         0         0         0
         0         0         0         0         0         0         0         0
         0         0         0         0         0         0         0         0
         0         0         0         0         0         0         0         0
         0         0         0         0         0         0         0         0
         0         0         0         0         0         0         0         0
         0         0         0         0         0         0         0         0
         0         0         0         0         0         0         0         0
         0         0         0         0         0         0         0         0
         0         0         0         0         0         0         0         0
         0         0         0         0         0         0         0         0
         0         0         0         0         0         0         0         0
         0         0         0         0         0         0         0         0
         0         0         0         0         0         0         0         0
         0         0         0         0         0         0         0         0
         0         0         0         0         0         0         0         0
         0         0         0         0         0         0         0         0
         0         0         0         0         0         0         0         0
         0         0         0         0         0         0         0         0
         0         0         0         0         0         0         0         0
         0         0         0         0         0         0         0         0
         0         0         0         0         0         0         0         0
         0         0         0         0         0         0         0         0
         0         0         0         0         0         0         0         0
         0         0         0         0         0         0         0         0
         0         0         0         0         0         0         0         0
         0         0         0         0         0         0         0         0
         0         0         0         0         0         0         0         0
         0         0         0         0         0         0         0         0
         0         0         0         0         0         0         0         0
         0         0         0         0         0         0         0         0
         0         0         0         0         0         0         0         0
         0         0         0         0         0         0         0         0
         0         0         0         0         0         0         0         0
         0         0         0         0         0         0         0         0
         0         0         0         0         0         0         0         0
         0         0         0         0         0         0         0         0
         0         0         0         0         0         0         0         0
         0         0         0         0         0         0         0         0
         0         0         0         0         0         0         0         0
         0         0         0         0         0         0         0         0
         0         0         0         0         0         0         0         0
         0         0         0         0         0         0         0         0
         0         0         0         0         0         0         0         0
         0         0         0         0         0         0         0         0
         0         0         0         0         0         0         0         0
         0         0         0         0         0         0         0         0
         0         0         0         0         0         0         0         0
         0         0         0         0         0         0         0         0
         0         0         0         0         0         0         0         0
         0         0         0         0         0         0         0         0
         0         0         0         0         0         0         0         0
         0         0         0         0         0         0         0         0
         0         0         0         0         0         0         0         0
         0         0         0         0         0         0         0         0
         0         0         0         0         0         0         0         0
         0         0         0         0         0         0         0         0
         0         0         0         0         0         0         0         0
         0         0         0         0         0         0         0         0
         0         0         0         0         0         0         0         0
         0         0         0         0         0         0         0         0
         0         0         0         0         0         0         0         0
         0         0         0         0         0         0         0         0
         0         0         0         0         0         0         0         0
         0         0         0         0         0         0         0         0
         0         0         0         0         0         0         0         0
         0         0         0         0         0         0         0         0
         0         0         0         0         0         0         0         0
         0         0         0         0         0         0         0         0
         0         0         0         0         0         0         0         0
         0         0         0         0         0         0         0         0
         0         0         0         0         0         0         0         0
         0         0         0         0         0         0         0         0
         0         0         0         0         0         0         0         0
         0         0         0         0         0         0         0         0
         0         0         0         0         0         0         0         0
         0         0         0         0         0         0         0         0
         0         0         0         0         0         0         0         0
         0         0         0         0         0         0         0         0
         0         0         0         0         0         0         0         0
         0         0         0         0         0         0         0         0
         0         0         0         0         0         0         0         0
         0         0         0         0         0         0         0         0
         0         0         0         0         0         0         0         0
         0         0         0         0         0         0         0         0
         0         0         0         0         0         0         0         0
         0         0         0         0         0         0         0         0
         0         0         0         0         0         0         0         0
         0         0         0         0         0         0         0         0
         0         0         0         0         0         0         0         0
         0         0         0         0         0         0         0         0
         0         0         0         0         0         0         0         0
         0         0         0         0         0         0         0         0
         0         0         0         0         0         0         0         0
         0         0         0         0         0         0         0         0
         0         0         0         0         0         0         0         0
         0         0         0         0         0         0         0         0
         0         0         0         0         0         0         0         0
         0         0         0         0         0         0         0         0
         0         0         0         0         0         0         0         0
         0         0         0         0         0         0         0         0
         0         0         0         0         0         0         0         0
         0         0         0         0         0         0         0         0
         0         0         0         0         0         0         0         0
         0         0         0         0         0         0         0         0
         0         0         0         0         0         0         0         0
         0         0         0         0         0         0         0         0
         0         0         0         0         0         0         0         0
         0         0         0         0         0         0         0         0
         0         0         0         0         0         0         0         0
         0         0         0         0         0         0         0         0
         0         0         0         0         0         0         0         0
         0         0         0         0         0         0         0         0
         0         0         0         0         0         0         0         0
         0         0         0         0         0         0         0         0
         0         0         0         0         0         0         0         0
         0         0         0         0         0         0         0         0
         0         0         0         0         0         0         0         0
         0         0         0         0         0         0         0         0
         0         0         0         0         0         0         0         0
         0         0         0         0         0         0         0         0
         0         0         0         0         0         0         0         0
         0         0         0         0         0         0         0         0
         0         0         0         0         0         0         0         0
         0         0         0         0         0         0         0         0
         0         0         0         0         0         0         0         0
         0         0         0         0         0         0         0         0
         0         0         0         0         0         0         0         0
         0         0         0         0         0         0         0         0
         0         0         0         0         0         0         0         0
         0         0         0         0         0         0         0         0
         0         0         0         0         0         0         0         0
         0         0         0         0         0         0         0         0
         0         0         0         0         0         0         0         0
         0         0         0         0         0         0         0         0
         0         0         0         0         0         0         0         0
         0         0         0         0         0         0         0         0
         0         0         0         0         0         0         0         0
         0         0         0         0         0         0         0         0
         0         0         0         0         0         0         0         0
         0         0         0         0         0         0         0         0
         0         0         0         0         0         0         0         0
         0         0         0         0         0         0         0         0
         0         0         0         0         0         0         0         0
         0         0         0         0         0         0         0         0
         0         0         0         0         0         0         0         0
         0         0         0         0         0         0         0         0
         0         0         0         0         0         0         0         0
         0         0         0         0         0         0         0         0
         0         0         0         0         0         0         0         0
         0         0         0         0         0         0         0         0
         0         0         0         0         0         0         0         0
         0         0         0         0         0         0         0         0
         0         0         0         0         0         0         0         0
         0         0         0         0         0         0         0         0
         0         0         0         0         0         0         0         0
         0         0         0         0         0         0         0         0
         0         0         0         0         0         0         0         0
         0         0         0         0         0         0         0         0
         0         0         0         0         0         0         0         0
         0         0         0         0         0         0         0         0
         0         0         0         0         0         0         0         0
         0         0         0         0         0         0         0         0
         0         0         0         0         0         0         0         0
         0         0         0         0         0         0         0         0
         0         0         0         0         0         0         0         0
         0         0         0         0         0         0         0         0
         0         0         0         0         0         0         0         0
         0         0         0         0         0         0         0         0
         0         0         0         0         0         0         0         0
         0         0         0         0         0         0         0         0
         0         0         0         0         0         0         0         0
         0         0         0         0         0         0         0         0
         0         0         0         0         0         0         0         0
         0         0         0         0         0         0         0         0
         0         0         0         0         0         0         0         0
         0         0         0         0         0         0         0         0
         0         0         0         0         0         0         0         0
         0         0         0         0         0         0         0         0
         0         0         0         0         0         0         0         0
         0         0         0         0         0         0         0         0
         0         0         0         0         0         0         0         0
         0         0         0         0         0         0         0         0
         0         0         0         0         0         0         0         0
         0         0         0         0         0         0         0         0
         0         0         0         0         0         0         0         0
         0         0         0         0         0         0         0         0
         0         0         0         0         0         0         0         0
         0         0         0         0         0         0         0         0
         0         0         0         0         0         0         0         0
         0         0         0         0         0         0         0         0
         0         0         0         0         0         0         0         0
         0         0         0         0         0         0         0         0
         0         0         0         0         0         0         0         0
         0         0         0         0         0         0         0         0
         0         0         0         0         0         0         0         0
         0         0         0         0         0         0         0         0
         0         0         0         0         0         0         0         0
         0         0         0         0         0         0         0         0
         0         0         0         0         0         0         0         0
         0         0         0         0         0         0         0         0
         0         0         0         0         0         0         0         0
         0         0         0         0         0         0         0         0
         0         0         0         0         0         0         0         0
         0         0         0         0         0         0         0         0
         0         0         0         0         0         0         0         0
         0         0         0         0         0         0         0         0
         0         0         0         0         0         0         0         0
         0         0         0         0         0         0         0         0
         0         0         0         0         0         0         0         0
         0         0         0         0         0         0         0         0
         0         0         0         0         0         0         0         0
         0         0         0         0         0         0         0         0
         0         0         0         0         0         0         0         0
         0         0         0         0         0         0         0         0
         0         0         0         0         0         0         0         0
         0         0         0         0         0         0         0         0
         0         0         0         0         0         0         0         0
         0         0         0         0         0         0         0         0
         0         0         0         0         0         0         0         0
         0         0         0         0         0         0         0         0
         0         0         0         0         0         0         0         0
         0         0         0         0         0         0         0         0
         0         0         0         0         0         0         0         0
         0         0         0         0         0         0         0         0
         0         0         0         0         0         0         0         0
         0         0         0         0         0         0         0         0
         0         0         0         0         0         0         0         0
         0         0         0         0         0         0         0         0
         0         0         0         0         0         0         0         0
         0         0         0         0         0         0         0         0
         0         0         0         0         0         0         0         0
         0         0         0         0         0         0         0         0
         0         0         0         0         0         0         0         0
         0         0         0         0         0         0         0         0
         0         0         0         0         0         0         0         0
         0         0         0         0         0         0         0         0
         0         0         0         0         0         0         0         0
         0         0         0         0         0         0         0         0
         0         0         0         0         0         0         0         0
         0         0         0         0         0         0         0         0
         0         0         0         0         0         0         0         0
         0         0         0         0         0         0         0         0
         0         0         0         0         0         0         0         0
         0         0         0         0         0         0         0         0
         0         0         0         0         0         0         0         0
         0         0         0         0         0         0         0         0
         0         0         0         0         0         0         0         0
         0         0         0         0         0         0         0         0
         0         0         0         0         0         0         0         0
         0         0         0         0         0         0         0         0
         0         0         0         0         0         0         0         0
         0         0         0         0         0         0         0         0
         0         0         0         0         0         0         0         0
         0         0         0         0         0         0         0         0
         0         0         0         0         0         0         0         0
         0         0         0         0         0         0         0         0
         0         0         0         0         0         0         0         0
         0         0         0         0         0         0         0         0
         0         0         0         0         0         0         0         0
         0         0         0         0         0         0         0         0
         0         0         0         0         0         0         0         0
         0         0         0         0         0         0         0         0
         0         0         0         0         0         0         0         0
         0         0         0         0         0         0         0         0
         0         0         0         0         0         0         0         0
         0         0         0         0         0         0         0         0
         0         0         0         0         0         0         0         0
         0         0         0         0         0         0         0         0
         0         0         0         0         0         0         0         0
         0         0         0         0         0         0         0         0
         0         0         0         0         0         0         0         0
         0         0         0         0         0         0         0         0
         0         0         0         0         0         0         0         0
         0         0         0         0         0         0         0         0
         0         0         0         0         0         0         0         0
         0         0         0         0         0         0         0         0
         0         0         0         0         0         0         0         0
         0         0         0         0         0         0         0         0
         0         0         0         0         0         0         0         0
         0         0         0         0         0         0         0         0
         0         0         0         0         0         0         0         0
         0         0         0         0         0         0         0         0
         0         0         0         0         0         0         0         0
         0         0         0         0         0         0         0         0
         0         0         0         0         0         0         0         0
         0         0         0         0         0         0         0         0
         0         0         0         0         0         0         0         0
         0         0         0         0         0         0         0         0
         0         0         0         0         0         0         0         0
         0         0         0         0         0         0         0         0
         0         0         0         0         0         0         0         0
         0         0         0         0         0         0         0         0
         0         0         0         0         0         0         0         0
         0         0         0         0         0         0         0         0
         0         0         0         0         0         0         0         0
         0         0         0         0         0         0         0         0
         0         0         0         0         0         0         0         0
         0         0         0         0         0         0         0         0
         0         0         0         0         0         0         0         0
         0         0         0         0         0         0         0         0
         0         0         0         0         0         0         0         0
         0         0         0         0         0         0         0         0
         0         0         0         0         0         0         0         0
         0         0         0         0         0         0         0         0
         0         0         0         0         0         0         0         0
         0         0         0         0         0         0         0         0
         0         0         0         0         0         0         0         0
         0         0         0         0         0         0         0         0
         0         0         0         0         0         0         0         0
         0         0         0         0         0         0         0         0
         0         0         0         0         0         0         0         0
         0         0         0         0         0         0         0         0
         0         0         0         0         0         0         0         0
         0         0         0         0         0         0         0         0
         0         0         0         0         0         0         0         0
         0         0         0         0         0         0         0         0
         0         0         0         0         0         0         0         0
         0         0         0         0         0         0         0         0
         0         0         0         0         0         0         0         0
         0         0         0         0         0         0         0         0
         0         0         0         0         0         0         0         0
         0         0         0         0         0         0         0         0
         0         0         0         0         0         0         0         0
         0         0         0         0         0         0         0         0
         0         0         0         0         0         0         0         0
         0         0         0         0         0         0         0         0
         0         0         0         0         0         0         0         0
         0         0         0         0         0         0         0         0
         0         0         0         0         0         0         0         0
         0         0         0         0         0         0         0         0
         0         0         0         0         0         0         0         0
         0         0         0         0         0         0         0         0
         0         0         0         0         0         0         0         0
         0         0         0         0         0         0         0         0
         0         0         0         0         0         0         0         0
         0         0         0         0         0         0         0         0
         0         0         0         0         0         0         0         0
         0         0         0         0         0         0         0         0
         0         0         0         0         0         0         0         0
         0         0         0         0         0         0         0         0
         0         0         0         0         0         0         0         0
         0         0         0         0         0         0         0         0
         0         0         0         0         0         0         0         0
         0         0         0         0         0         0         0         0
         0         0         0         0         0         0         0         0
         0         0         0         0         0         0         0         0
         0         0         0         0         0         0         0         0
         0         0         0         0         0         0         0         0
         0         0         0         0         0         0         0         0
         0         0         0         0         0         0         0         0
         0         0         0         0         0         0         0         0
         0         0         0         0         0         0         0         0
         0         0         0         0         0         0         0         0
         0         0         0         0         0         0         0         0
         0         0         0         0         0         0         0         0
         0         0         0         0         0         0         0         0
         0         0         0         0         0         0         0         0
         0         0         0         0         0         0         0         0
         0         0         0         0         0         0         0         0
         0         0         0         0         0         0         0         0
         0         0         0         0         0         0         0         0
         0         0         0         0         0         0         0         0
         0         0         0         0         0         0         0         0
         0         0         0         0         0         0         0         0
         0         0         0         0         0         0         0         0
         0         0         0         0         0         0         0         0
         0         0         0         0         0         0         0         0
         0         0         0         0         0         0         0         0
         0         0         0         0         0         0         0         0
         0         0         0         0         0         0         0         0
         0         0         0         0         0         0         0         0
         0         0         0         0         0         0         0         0
         0         0         0         0         0         0         0         0
         0         0         0         0         0         0         0         0
         0         0         0         0         0         0         0         0
         0         0         0         0         0         0         0         0
         0         0         0         0         0         0         0         0
         0         0         0         0         0         0         0         0
         0         0         0         0         0         0         0         0
         0         0         0         0         0         0         0         0
         0         0         0         0         0         0         0         0
         0         0         0         0         0         0         0         0
         0         0         0         0         0         0         0         0
         0         0         0         0         0         0         0         0
         0         0         0         0         0         0         0         0
         0         0         0         0         0         0         0         0
         0         0         0         0         0         0         0         0
         0         0         0         0         0         0         0         0
         0         0         0         0         0         0         0         0
         0         0         0         0         0         0         0         0
         0         0         0         0         0         0         0         0
         0         0         0         0         0         0         0         0
         0         0         0         0         0         0         0         0
         0         0         0         0         0         0         0         0
         0         0         0         0         0         0         0         0
         0         0         0         0         0         0         0         0
         0         0         0         0         0         0         0         0
         0         0         0         0         0         0         0         0
         0         0         0         0         0         0         0         0
         0         0         0         0         0         0         0         0
         0         0         0         0         0         0         0         0
         0         0         0         0         0         0         0         0
         0         0         0         0         0         0         0         0
         0         0         0         0         0         0         0         0
         0         0         0         0         0         0         0         0
         0         0         0         0         0         0         0         0
         0         0         0         0         0         0         0         0
         0         0         0         0         0         0         0         0
         0         0         0         0         0         0         0         0
         0         0         0         0         0         0         0         0
         0         0         0         0         0         0         0         0
         0         0         0         0         0         0         0         0
         0         0         0         0         0         0         0         0
         0         0         0         0         0         0         0         0
         0         0         0         0         0         0         0         0
         0         0         0         0         0         0         0         0
         0         0         0         0         0         0         0         0
         0         0         0         0         0         0         0         0
         0         0         0         0         0         0         0         0
         0         0         0         0         0         0         0         0
         0         0         0         0         0         0         0         0
         0         0         0         0         0         0         0         0
         0         0         0         0         0         0         0         0
         0         0         0         0         0         0         0         0
         0         0         0         0         0         0         0         0
         0         0         0         0         0         0         0         0
         0         0         0         0         0         0         0         0
         0         0         0         0         0         0         0         0
         0         0         0         0         0         0         0         0
         0         0         0         0         0         0         0         0
         0         0         0         0         0         0         0         0
         0         0         0         0         0         0         0         0
         0         0         0         0         0         0         0         0
         0         0         0         0         0         0         0         0
         0         0         0         0         0         0         0         0
         0         0         0         0         0         0         0         0
         0         0         0         0         0         0         0         0
         0         0         0         0         0         0         0         0
         0         0         0         0         0         0         0         0
         0         0         0         0         0         0         0         0
         0         0         0         0         0         0         0         0
         0         0         0         0         0         0         0         0
         0         0         0         0         0         0         0         0
         0         0         0         0         0         0         0         0
         0         0         0         0         0         0         0         0
         0         0         0         0         0         0         0         0
         0         0         0         0         0         0         0         0
         0         0         0         0         0         0         0         0
         0         0         0         0         0         0         0         0
         0         0         0         0         0         0         0         0
         0         0         0         0         0         0         0         0
         0         0         0         0         0         0         0         0
         0         0         0         0         0         0         0         0
         0         0         0         0         0         0         0         0
         0         0         0         0         0         0         0         0
         0         0         0         0         0         0         0         0
         0         0         0         0         0         0         0         0
         0         0         0         0         0         0         0         0
         0         0         0         0         0         0         0         0
         0         0         0         0         0         0         0         0
         0         0         0         0         0         0         0         0
         0         0         0         0         0         0         0         0
         0         0         0         0         0         0         0         0
         0         0         0         0         0         0         0         0
         0         0         0         0         0         0         0         0
         0         0         0         0         0         0         0         0
         0         0         0         0         0         0         0         0
         0         0         0         0         0         0         0         0
         0         0         0         0         0         0         0         0
         0         0         0         0         0         0         0         0
         0         0         0         0         0         0         0         0
         0         0         0         0         0         0         0         0
         0         0         0         0         0         0         0         0
         0         0         0         0         0         0         0         0
         0         0         0         0         0         0         0         0
         0         0         0         0         0         0         0         0
         0         0         0         0         0         0         0         0
         0         0         0         0         0         0         0         0
         0         0         0         0         0         0         0         0
         0         0         0         0         0         0         0         0
         0         0         0         0         0         0         0         0
         0         0         0         0         0         0         0         0
         0         0         0         0         0         0         0         0
         0         0         0         0         0         0         0         0
         0         0         0         0         0         0         0         0
         0         0         0         0         0         0         0         0
         0         0         0         0         0         0         0         0
         0         0         0         0         0         0         0         0
         0         0         0         0         0         0         0         0
         0         0         0         0         0         0         0         0
         0         0         0         0         0         0         0         0
         0         0         0         0         0         0         0         0
         0         0         0         0         0         0         0         0
         0         0         0         0         0         0         0         0
         0         0         0         0         0         0         0         0
         0         0         0         0         0         0         0         0
         0         0         0         0         0         0         0         0
         0         0         0         0         0         0         0         0
         0         0         0         0         0         0         0         0
         0         0         0         0         0         0         0         0
         0         0         0         0         0         0         0         0
         0         0         0         0         0         0         0         0
         0         0         0         0         0         0         0         0
         0         0         0         0         0         0         0         0
         0         0         0         0         0         0         0         0
         0         0         0         0         0         0         0         0
         0         0         0         0         0         0         0         0
         0         0         0         0         0         0         0         0
         0         0         0         0         0         0         0         0
         0         0         0         0         0         0         0         0
         0         0         0         0         0         0         0         0
         0         0         0         0         0         0         0         0
         0         0         0         0         0         0         0         0
         0         0         0         0         0         0         0         0
         0         0         0         0         0         0         0         0
         0         0         0         0         0         0         0         0
         0         0         0         0         0         0         0         0
         0         0         0         0         0         0         0         0
         0         0         0         0         0         0         0         0
         0         0         0         0         0         0         0         0
         0         0         0         0         0         0         0         0
         0         0         0         0         0         0         0         0
         0         0         0         0         0         0         0         0
         0         0         0         0         0         0         0         0
         0         0         0         0         0         0         0         0
         0         0         0         0         0         0         0         0
         0         0         0         0         0         0         0         0
         0         0         0         0         0         0         0         0
         0         0         0         0         0         0         0         0
         0         0         0         0         0         0         0         0
         0         0         0         0         0         0         0         0
         0         0         0         0         0         0         0         0
         0         0         0         0         0         0         0         0
         0         0         0         0         0         0         0         0
         0         0         0         0         0         0         0         0
         0         0         0         0         0         0         0         0
         0         0         0         0         0         0         0         0
         0         0         0         0         0         0         0         0
         0         0         0         0         0         0         0         0
         0         0         0         0         0         0         0         0
         0         0         0         0         0         0         0         0
         0         0         0         0         0         0         0         0
         0         0         0         0         0         0         0         0
         0         0         0         0         0         0         0         0
         0         0         0         0         0         0         0         0
         0         0         0         0         0         0         0         0
         0         0         0         0         0         0         0         0
         0         0         0         0         0         0         0         0
         0         0         0         0         0         0         0         0
         0         0         0         0         0         0         0         0
         0         0         0         0         0         0         0         0
         0         0         0         0         0         0         0         0
         0         0         0         0         0         0         0         0
         0         0         0         0         0         0         0         0
         0         0         0         0         0         0         0         0
         0         0         0         0         0         0         0         0
         0         0         0         0         0         0         0         0
         0         0         0         0         0         0         0         0
         0         0         0         0         0         0         0         0
         0         0         0         0         0         0         0         0
         0         0         0         0         0         0         0         0
         0         0         0         0         0         0         0         0
         0         0         0         0         0         0         0         0
         0         0         0         0         0         0         0         0
         0         0         0         0         0         0         0         0
         0         0         0         0         0         0         0         0
         0         0         0         0         0         0         0         0
         0         0         0         0         0         0         0         0
         0         0         0         0         0         0         0         0
         0         0         0         0         0         0         0         0
         0         0         0         0         0         0         0         0
         0         0         0         0         0         0         0         0
         0         0         0         0         0         0         0         0
         0         0         0         0         0         0         0         0
         0         0         0         0         0         0         0         0
         0         0         0         0         0         0         0         0
         0         0         0         0         0         0         0         0
         0         0         0         0         0         0         0         0
         0         0         0         0         0         0         0         0
         0         0         0         0         0         0         0         0
         0         0         0         0         0         0         0         0
         0         0         0         0         0         0         0         0
         0         0         0         0         0         0         0         0
         0         0         0         0         0         0         0         0
         0         0         0         0         0         0         0         0
         0         0         0         0         0         0         0         0
         0         0         0         0         0         0         0         0
         0         0         0         0         0         0         0         0
         0         0         0         0         0         0         0         0
         0         0         0         0         0         0         0         0
         0         0         0         0         0         0         0         0
         0         0         0         0         0         0         0         0
         0         0         0         0         0         0         0         0
         0         0         0         0         0         0         0         0
         0         0         0         0         0         0         0         0
         0         0         0         0         0         0         0         0
         0         0         0         0         0         0         0         0
         0         0         0         0         0         0         0         0
         0         0         0         0         0         0         0         0
         0         0         0         0         0         0         0         0
         0         0         0         0         0         0         0         0
         0         0         0         0         0         0         0         0
         0         0         0         0         0         0         0         0
         0         0         0         0         0         0         0         0
         0         0         0         0         0         0         0         0
         0         0         0         0         0         0         0         0
         0         0         0         0         0         0         0         0
         0         0         0         0         0         0         0         0
         0         0         0         0         0         0         0         0
         0         0         0         0         0         0         0         0
         0         0         0         0         0         0         0         0
         0         0         0         0         0         0         0         0
         0         0         0         0         0         0         0         0
         0         0         0         0         0         0         0         0
         0         0         0         0         0         0         0         0
         0         0         0         0         0         0         0         0
         0         0         0         0         0         0         0         0
         0         0         0         0         0         0         0         0
         0         0         0         0         0         0         0         0
         0         0         0         0         0         0         0         0
         0         0         0         0         0         0         0         0
         0         0         0         0         0         0         0         0
         0         0         0         0         0         0         0         0
         0         0         0         0         0         0         0         0
         0         0         0         0         0         0         0         0
         0         0         0         0         0         0         0         0
         0         0         0         0         0         0         0         0
         0         0         0         0         0         0         0         0
         0         0         0         0         0         0         0         0
         0         0         0         0         0         0         0         0
         0         0         0         0         0         0         0         0
         0         0         0         0         0         0         0         0
         0         0         0         0         0         0         0         0
         0         0         0         0         0         0         0         0
         0         0         0         0         0         0         0         0
         0         0         0         0         0         0         0         0
         0         0         0         0         0         0         0         0
         0         0         0         0         0         0         0         0
         0         0         0         0         0         0         0         0
         0         0         0         0         0         0         0         0
         0         0         0         0         0         0         0         0
         0         0         0         0         0         0         0         0
         0         0         0         0         0         0         0         0
         0         0         0         0         0         0         0         0
         0         0         0         0         0         0         0         0
         0         0         0         0         0         0         0         0
         0         0         0         0         0         0         0         0
         0         0         0         0         0         0         0         0
         0         0         0         0         0         0         0         0
         0         0         0         0         0         0         0         0
         0         0         0         0         0         0         0         0
         0         0         0         0         0         0         0         0
         0         0         0         0         0         0         0         0
         0         0         0         0         0         0         0         0
         0         0         0         0         0         0         0         0
         0         0         0         0         0         0         0         0
         0         0         0         0         0         0         0         0
         0         0         0         0         0         0         0         0
         0         0         0         0         0         0         0         0
         0         0         0         0         0         0         0         0
         0         0         0         0         0         0         0         0
         0         0         0         0         0         0         0         0
         0         0         0         0         0         0         0         0
         0         0         0         0         0         0         0         0
         0         0         0         0         0         0         0         0
         0         0         0         0         0         0         0         0
         0         0         0         0         0         0         0         0
         0         0         0         0         0         0         0         0
         0         0         0         0         0         0         0         0
         0         0         0         0         0         0         0         0
         0         0         0         0         0         0         0         0
         0         0         0         0         0         0         0         0
         0         0         0         0         0         0         0         0
         0         0         0         0         0         0         0         0
         0         0         0         0         0         0         0         0
         0         0         0         0         0         0         0         0
         0         0         0         0         0         0         0         0
         0         0         0         0         0         0         0         0
         0         0         0         0         0         0         0         0
         0         0         0         0         0         0         0         0
         0         0         0         0         0         0         0         0
         0         0         0         0         0         0         0         0
         0         0         0         0         0         0         0         0
         0         0         0         0         0         0         0         0
         0         0         0         0         0         0         0         0
         0         0         0         0         0         0         0         0
         0         0         0         0         0         0         0         0
         0         0         0         0         0         0         0         0
         0         0         0         0         0         0         0         0
         0         0         0         0         0         0         0         0
         0         0         0         0         0         0         0         0
         0         0         0         0         0         0         0         0
         0         0         0         0         0         0         0         0
         0         0         0         0         0         0         0         0
         0         0         0         0         0         0         0         0
         0         0         0         0         0         0         0         0
         0         0         0         0         0         0         0         0
         0         0         0         0         0         0         0         0
         0         0         0         0         0         0         0         0
         0         0         0         0         0         0         0         0
         0         0         0         0         0         0         0         0
         0         0         0         0         0         0         0         0
         0         0         0         0         0         0         0         0
         0         0         0         0         0         0         0         0
         0         0         0         0         0         0         0         0
         0         0         0         0         0         0         0         0
         0         0         0         0         0         0         0         0
         0         0         0         0         0         0         0         0
         0         0         0         0         0         0         0         0
         0         0         0         0         0         0         0         0
         0         0         0         0         0         0         0         0
         0         0         0         0         0         0         0         0
         0         0         0         0         0         0         0         0
         0         0         0         0         0         0         0         0
         0         0         0         0         0         0         0         0
         0         0         0         0         0         0         0         0
         0         0         0         0         0         0         0         0
         0         0         0         0         0         0         0         0
         0         0         0         0         0         0         0         0
         0         0         0         0         0         0         0         0
         0         0         0         0         0         0         0         0
         0         0         0         0         0         0         0         0
         0         0         0         0         0         0         0         0
         0         0         0         0         0         0         0         0
         0         0         0         0         0         0         0         0
         0         0         0         0         0         0         0         0
         0         0         0         0         0         0         0         0
         0         0         0         0         0         0         0         0
         0         0         0         0         0         0         0         0
         0         0         0         0         0         0         0         0
         0         0         0         0         0         0         0         0
         0         0         0         0         0         0         0         0
         0         0         0         0         0         0         0         0
         0         0         0         0         0         0         0         0
         0         0         0         0         0         0         0         0
         0         0         0         0         0         0         0         0
         0         0         0         0         0         0         0         0
         0         0         0         0         0         0         0         0
         0         0         0         0         0         0         0         0
         0         0         0         0         0         0         0         0
         0         0         0         0         0         0         0         0
         0         0         0         0         0         0         0         0
         0         0         0         0         0         0         0         0
         0         0         0         0         0         0         0         0
         0         0         0         0         0         0         0         0
         0         0         0         0         0         0         0         0
         0         0         0         0         0         0         0         0
         0         0         0         0         0         0         0         0
         0         0         0         0         0         0         0         0
         0         0         0         0         0         0         0         0
         0         0         0         0         0         0         0         0
         0         0         0         0         0         0         0         0
         0         0         0         0         0         0         0         0
         0         0         0         0         0         0         0         0
         0         0         0         0         0         0         0         0
         0         0         0         0         0         0         0         0
         0         0         0         0         0         0         0         0
         0         0         0         0         0         0         0         0
         0         0         0         0         0         0         0         0
         0         0         0         0         0         0         0         0
         0         0         0         0         0         0         0         0
         0         0         0         0         0         0         0         0
         0         0         0         0         0         0         0         0
         0         0         0         0         0         0         0         0
         0         0         0         0         0         0         0         0
         0         0         0         0         0         0         0         0
         0         0         0         0         0         0         0         0
         0         0         0         0         0         0         0         0
         0         0         0         0         0         0         0         0
         0         0         0         0         0         0         0         0
         0         0         0         0         0         0         0         0
         0         0         0         0         0         0         0         0
         0         0         0         0         0         0         0         0
         0         0         0         0         0         0         0         0
         0         0         0         0         0         0         0         0
         0         0         0         0         0         0         0         0
         0         0         0         0         0         0         0         0
         0         0         0         0         0         0         0         0
         0         0         0         0         0         0         0         0
         0         0         0         0         0         0         0         0
         0         0         0         0         0         0         0         0
         0         0         0         0         0         0         0         0
         0         0         0         0         0         0         0         0
         0         0         0         0         0         0         0         0
         0         0         0         0         0         0         0         0
         0         0         0         0         0         0         0         0
         0         0         0         0         0         0         0         0
         0         0         0         0         0         0         0         0
         0         0         0         0         0         0         0         0
         0         0         0         0         0         0         0         0
         0         0         0         0         0         0         0         0
         0         0         0         0         0         0         0         0
         0         0         0         0         0         0         0         0
         0         0         0         0         0         0         0         0
         0         0         0         0         0         0         0         0
         0         0         0         0         0         0         0         0
         0         0         0         0         0         0         0         0
         0         0         0         0         0         0         0         0
         0         0         0         0         0         0         0         0
         0         0         0         0         0         0         0         0
         0         0         0         0         0         0         0         0
         0         0         0         0         0         0         0         0
         0         0         0         0         0         0         0         0
         0         0         0         0         0         0         0         0
         0         0         0         0         0         0         0         0
         0         0         0         0         0         0         0         0
         0         0         0         0         0         0         0         0
         0         0         0         0         0         0         0         0
         0         0         0         0         0         0         0         0
         0         0         0         0         0         0         0         0
         0         0         0         0         0         0         0         0
         0         0         0         0         0         0         0         0
         0         0         0         0         0         0         0         0
         0         0         0         0         0         0         0         0
         0         0         0         0         0         0         0         0
         0         0         0         0         0         0         0         0
         0         0         0         0         0         0         0         0
         0         0         0         0         0         0         0         0
         0         0         0         0         0         0         0         0
         0         0         0         0         0         0         0         0
         0         0         0         0         0         0         0         0
         0         0         0         0         0         0         0         0
         0         0         0         0         0         0         0         0
         0         0         0         0         0         0         0         0
         0         0         0         0         0         0         0         0
         0         0         0         0         0         0         0         0
         0         0         0         0         0         0         0         0
         0         0         0         0         0         0         0         0
         0         0         0         0         0         0         0         0
         0         0         0         0         0         0         0         0
         0         0         0         0         0         0         0         0
         0         0         0         0         0         0         0         0
         0         0         0         0         0         0         0         0
         0         0         0         0         0         0         0         0
         0         0         0         0         0         0         0         0
         0         0         0         0         0         0         0         0
         0         0         0         0         0         0         0         0
         0         0         0         0         0         0         0         0
         0         0         0         0         0         0         0         0
         0         0         0         0         0         0         0         0
         0         0         0         0         0         0         0         0
         0         0         0         0         0         0         0         0
         0         0         0         0         0         0         0         0
         0         0         0         0         0         0         0         0
         0         0         0         0         0         0         0         0
         0         0         0         0         0         0         0         0
         0         0         0         0         0         0         0         0
         0         0         0         0         0         0         0         0
         0         0         0         0         0         0         0         0
         0         0         0         0         0         0         0         0
         0         0         0         0         0         0         0         0
         0         0         0         0         0         0         0         0
         0         0         0         0         0         0         0         0
         0         0         0         0         0         0         0         0
         0         0         0         0         0         0         0         0
         0         0         0         0         0         0         0         0
         0         0         0         0         0         0         0         0
         0         0         0         0         0         0         0         0
         0         0         0         0         0         0         0         0
         0         0         0         0         0         0         0         0
         0         0         0         0         0         0         0         0
         0         0         0         0         0         0         0         0
         0         0         0         0         0         0         0         0
         0         0         0         0         0         0         0         0
         0         0         0         0         0         0         0         0
         0         0         0         0         0         0         0         0
         0         0         0         0         0         0         0         0
         0         0         0         0         0         0         0         0
         0         0         0         0         0         0         0         0
         0         0         0         0         0         0         0         0
         0         0         0         0         0         0         0         0
         0         0         0         0         0         0         0         0
         0         0         0         0         0         0         0         0
         0         0         0         0         0         0         0         0
         0         0         0         0         0         0         0         0
         0         0         0         0         0         0         0         0
         0         0         0         0         0         0         0         0
         0         0         0         0         0         0         0         0
         0         0         0         0         0         0         0         0
         0         0         0         0         0         0         0         0
         0         0         0         0         0         0         0         0
         0         0         0         0         0         0         0         0
         0         0         0         0         0         0         0         0
         0         0         0         0         0         0         0         0
         0         0         0         0         0         0         0         0
         0         0         0         0         0         0         0         0
         0         0         0         0         0         0         0         0
         0         0         0         0         0         0         0         0
         0         0         0         0         0         0         0         0
         0         0         0         0         0         0         0         0
         0         0         0         0         0         0         0         0
         0         0         0         0         0         0         0         0
         0         0         0         0         0         0         0         0
         0         0         0         0         0         0         0         0
         0         0         0         0         0         0         0         0
         0         0         0         0         0         0         0         0
         0         0         0         0         0         0         0         0
         0         0         0         0         0         0         0         0
         0         0         0         0         0         0         0         0
         0         0         0         0         0         0         0         0
         0         0         0         0         0         0         0         0
         0         0         0         0         0         0         0         0
         0         0         0         0         0         0         0         0
         0         0         0         0         0         0         0         0
         0         0         0         0         0         0         0         0
         0         0         0         0         0         0         0         0
         0         0         0         0         0         0         0         0
         0         0         0         0         0         0         0         0
         0         0         0         0         0         0         0         0
         0         0         0         0         0         0         0         0
         0         0         0         0         0         0         0         0
         0         0         0         0         0         0         0         0
         0         0         0         0         0         0         0         0
         0         0         0         0         0         0         0         0
         0         0         0         0         0         0         0         0
         0         0         0         0         0         0         0         0
         0         0         0         0         0         0         0         0
         0         0         0         0         0         0         0         0
         0         0         0         0         0         0         0         0
         0         0         0         0         0         0         0         0
         0         0         0         0         0         0         0         0
         0         0         0         0         0         0         0         0
         0         0         0         0         0         0         0         0
         0         0         0         0         0         0         0         0
         0         0         0         0         0         0         0         0
         0         0         0         0         0         0         0         0
         0         0         0         0         0         0         0         0
         0         0         0         0         0         0         0         0
         0         0         0         0         0         0         0         0
         0         0         0         0         0         0         0         0
         0         0         0         0         0         0         0         0
         0         0         0         0         0         0         0         0
         0         0         0         0         0         0         0         0
         0         0         0         0         0         0         0         0
         0         0         0         0         0         0         0         0
         0         0         0         0         0         0         0         0
         0         0         0         0         0         0         0         0
         0         0         0         0         0         0         0         0
         0         0         0         0         0         0         0         0
         0         0         0         0         0         0         0         0
         0         0         0         0         0         0         0         0
         0         0         0         0         0         0         0         0
         0         0         0         0         0         0         0         0
         0         0         0         0         0         0         0         0
         0         0         0         0         0         0         0         0
         0         0         0         0         0         0         0         0
         0         0         0         0         0         0         0         0
         0         0         0         0         0         0         0         0
         0         0         0         0         0         0         0         0
         0         0         0         0         0         0         0         0
         0         0         0         0         0         0         0         0
         0         0         0         0         0         0         0         0
         0         0         0         0         0         0         0         0
         0         0         0         0         0         0         0         0
         0         0         0         0         0         0         0         0
         0         0         0         0         0         0         0         0
         0         0         0         0         0         0         0         0
         0         0         0         0         0         0         0         0
         0         0         0         0         0         0         0         0
         0         0         0         0         0         0         0         0
         0         0         0         0         0         0         0         0
         0         0         0         0         0         0         0         0
         0         0         0         0         0         0         0         0
         0         0         0         0         0         0         0         0
         0         0         0         0         0         0         0         0
         0         0         0         0         0         0         0         0
         0         0         0         0         0         0         0         0
         0         0         0         0         0         0         0         0
         0         0         0         0         0         0         0         0
         0         0         0         0         0         0         0         0
         0         0         0         0         0         0         0         0
         0         0         0         0         0         0         0         0
         0         0         0         0         0         0         0         0
         0         0         0         0         0         0         0         0
         0         0         0         0         0         0         0         0
         0         0         0         0         0         0         0         0
         0         0         0         0         0         0         0         0
         0         0         0         0         0         0         0         0
         0         0         0         0         0         0         0         0
         0         0         0         0         0         0         0         0
         0         0         0         0         0         0         0         0
         0         0         0         0         0         0         0         0
         0         0         0         0         0         0         0         0
         0         0         0         0         0         0         0         0
         0         0         0         0         0         0         0         0
         0         0         0         0         0         0         0         0
         0         0         0         0         0         0         0         0
         0         0         0         0         0         0         0         0
         0         0         0         0         0         0         0         0
         0         0         0         0         0         0         0         0
         0         0         0         0         0         0         0         0
         0         0         0         0         0         0         0         0
         0         0         0         0         0         0         0         0
         0         0         0         0         0         0         0         0
         0         0         0         0         0         0         0         0
         0         0         0         0         0         0         0         0
         0         0         0         0         0         0         0         0
         0         0         0         0         0         0         0         0
         0         0         0         0         0         0         0         0
         0         0         0         0         0         0         0         0
         0         0         0         0         0         0         0         0
         0         0         0         0         0         0         0         0
         0         0         0         0         0         0         0         0
         0         0         0         0         0         0         0         0
         0         0         0         0         0         0         0         0
         0         0         0         0         0         0         0         0
         0         0         0         0         0         0         0         0
         0         0         0         0         0         0         0         0
         0         0         0         0         0         0         0         0
         0         0         0         0         0         0         0         0
         0         0         0         0         0         0         0         0
         0         0         0         0         0         0         0         0
         0         0         0         0         0         0         0         0
         0         0         0         0         0         0         0         0
         0         0         0         0         0         0         0         0
         0         0         0         0         0         0         0         0
         0         0         0         0         0         0         0         0
         0         0         0         0         0         0         0         0
         0         0         0         0         0         0         0         0
         0         0         0         0         0         0         0         0
         0         0         0         0         0         0         0         0
         0         0         0         0         0         0         0         0
         0         0         0         0         0         0         0         0
         0         0         0         0         0         0         0         0
         0         0         0         0         0         0         0         0
         0         0         0         0         0         0         0         0
         0         0         0         0         0         0         0         0
         0         0         0         0         0         0         0         0
         0         0         0         0         0         0         0         0
         0         0         0         0         0         0         0         0
         0         0         0         0         0         0         0         0
         0         0         0         0         0         0         0         0
         0         0         0         0         0         0         0         0
         0         0         0         0         0         0         0         0
         0         0         0         0         0         0         0         0
         0         0         0         0         0         0         0         0
         0         0         0         0         0         0         0         0
         0         0         0         0         0         0         0         0
         0         0         0         0         0         0         0         0
         0         0         0         0         0         0         0         0
         0         0         0         0         0         0         0         0
         0         0         0         0         0         0         0         0
         0         0         0         0         0         0         0         0
         0         0         0         0         0         0         0         0
         0         0         0         0         0         0         0         0
         0         0         0         0         0         0         0         0
         0         0         0         0         0         0         0         0
         0         0         0         0         0         0         0         0
         0         0         0         0         0         0         0         0
         0         0         0         0         0         0         0         0
         0         0         0         0         0         0         0         0
         0         0         0         0         0         0         0         0
         0         0         0         0         0         0         0         0
         0         0         0         0         0         0         0         0
         0         0         0         0         0         0         0         0
         0         0         0         0         0         0         0         0
         0         0         0         0         0         0         0         0
         0         0         0         0         0         0         0         0
         0         0         0         0         0         0         0         0
         0         0         0         0         0         0         0         0
         0         0         0         0         0         0         0         0
         0         0         0         0         0         0         0         0
         0         0         0         0         0         0         0         0
         0         0         0         0         0         0         0         0
         0         0         0         0         0         0         0         0
         0         0         0         0         0         0         0         0
         0         0         0         0         0         0         0         0
         0         0         0         0         0         0         0         0
         0         0         0         0         0         0         0         0
         0         0         0         0         0         0         0         0
         0         0         0         0         0         0         0         0
         0         0         0         0         0         0         0         0
         0         0         0         0         0         0         0         0
         0         0         0         0         0         0         0         0
         0         0         0         0         0         0         0         0
         0         0         0         0         0         0         0         0
         0         0         0         0         0         0         0         0
         0         0         0         0         0         0         0         0
         0         0         0         0         0         0         0         0
         0         0         0         0         0         0         0         0
         0         0         0         0         0         0         0         0
         0         0         0         0         0         0         0         0
         0         0         0         0         0         0         0         0
         0         0         0         0         0         0         0         0
         0         0         0         0         0         0         0         0
         0         0         0         0         0         0         0         0
         0         0         0         0         0         0         0         0
         0         0         0         0         0         0         0         0
         0         0         0         0         0         0         0         0
         0         0         0         0         0         0         0         0
         0         0         0         0         0         0         0         0
         0         0         0         0         0         0         0         0
         0         0         0         0         0         0         0         0
         0         0         0         0         0         0         0         0
         0         0         0         0         0         0         0         0
         0         0         0         0         0         0         0         0
         0         0         0         0         0         0         0         0
         0         0         0         0         0         0         0         0
         0         0         0         0         0         0         0         0
         0         0         0         0         0         0         0         0
         0         0         0         0         0         0         0         0
         0         0         0         0         0         0         0         0
         0         0         0         0         0         0         0         0
         0         0         0         0         0         0         0         0
         0         0         0         0         0         0         0         0
         0         0         0         0         0         0         0         0
         0         0         0         0         0         0         0         0
         0         0         0         0         0         0         0         0
         0         0         0         0         0         0         0         0
         0         0         0         0         0         0         0         0
         0         0         0         0         0         0         0         0
         0         0         0         0         0         0         0         0
         0         0         0         0         0         0         0         0
         0         0         0         0         0         0         0         0
         0         0         0         0         0         0         0         0
         0         0         0         0         0         0         0         0
         0         0         0         0         0         0         0         0
         0         0         0         0         0         0         0         0
         0         0         0         0         0         0         0         0
         0         0         0         0         0         0         0         0
         0         0         0         0         0         0         0         0
         0         0         0         0         0         0         0         0
         0         0         0         0         0         0         0         0
         0         0         0         0         0         0         0         0
         0         0         0         0         0         0         0         0
         0         0         0         0         0         0         0         0
         0         0         0         0         0         0         0         0
         0         0         0         0         0         0         0         0
         0         0         0         0         0         0         0         0
         0         0         0         0         0         0         0         0
         0         0         0         0         0         0         0         0
         0         0         0         0         0         0         0         0
         0         0         0         0         0         0         0         0
         0         0         0         0         0         0         0         0
         0         0         0         0         0         0         0         0
         0         0         0         0         0         0         0         0
         0         0         0         0         0         0         0         0
         0         0         0         0         0         0         0         0
         0         0         0         0         0         0         0         0
         0         0         0         0         0         0         0         0
         0         0         0         0         0         0         0         0
         0         0         0         0         0         0         0         0
         0         0         0         0         0         0         0         0
         0         0         0         0         0         0         0         0
         0         0         0         0         0         0         0         0
         0         0         0         0         0         0         0         0
         0         0         0         0         0         0         0         0
         0         0         0         0         0         0         0         0
         0         0         0         0         0         0         0         0
         0         0         0         0         0         0         0         0
         0         0         0         0         0         0         0         0
         0         0         0         0         0         0         0         0
         0         0         0         0         0         0         0         0
         0         0         0         0         0         0         0         0
         0         0         0         0         0         0         0         0
         0         0         0         0         0         0         0         0
         0         0         0         0         0         0         0         0
         0         0         0         0         0         0         0         0
         0         0         0         0         0         0         0         0
         0         0         0         0         0         0         0         0
         0         0         0         0         0         0         0         0
         0         0         0         0         0         0         0         0
         0         0         0         0         0         0         0         0
         0         0         0         0         0         0         0         0
         0         0         0         0         0         0         0         0
         0         0         0         0         0         0         0         0
         0         0         0         0         0         0         0         0
         0         0         0         0         0         0         0         0
         0         0         0         0         0         0         0         0
         0         0         0         0         0         0         0         0
         0         0         0         0         0         0         0         0
         0         0         0         0         0         0         0         0
         0         0         0         0         0         0         0         0
         0         0         0         0         0         0         0         0
         0         0         0         0         0         0         0         0
         0         0         0         0         0         0         0         0
         0         0         0         0         0         0         0         0
         0         0         0         0         0         0         0         0
         0         0         0         0         0         0         0         0
         0         0         0         0         0         0         0         0
         0         0         0         0         0         0         0         0
         0         0         0         0         0         0         0         0
         0         0         0         0         0         0         0         0
         0         0         0         0         0         0         0         0
         0         0         0         0         0         0         0         0
         0         0         0         0         0         0         0         0
         0         0         0         0         0         0         0         0
         0         0         0         0         0         0         0         0
         0         0         0         0         0         0         0         0
         0         0         0         0         0         0         0         0
         0         0         0         0         0         0         0         0
         0         0         0         0         0         0         0         0
         0         0         0         0         0         0         0         0
         0         0         0         0         0         0         0         0
         0         0         0         0         0         0         0         0
         0         0         0         0         0         0         0         0
         0         0         0         0         0         0         0         0
         0         0         0         0         0         0         0         0
         0         0         0         0         0         0         0         0
         0         0         0         0         0         0         0         0
         0         0         0         0         0         0         0         0
         0         0         0         0         0         0         0         0
         0         0         0         0         0         0         0         0
         0         0         0         0         0         0         0         0
         0         0         0         0         0         0         0         0
         0         0         0         0         0         0         0         0
         0         0         0         0         0         0         0         0
         0         0         0         0         0         0         0         0
         0         0         0         0         0         0         0         0
         0         0         0         0         0         0         0         0
         0         0         0         0         0         0         0         0
         0         0         0         0         0         0         0         0
         0         0         0         0         0         0         0         0
         0         0         0         0         0         0         0         0
         0         0         0         0         0         0         0         0
         0         0         0         0         0         0         0         0
         0         0         0         0         0         0         0         0
         0         0         0         0         0         0         0         0
         0         0         0         0         0         0         0         0
         0         0         0         0         0         0         0         0
         0         0         0         0         0         0         0         0
         0         0         0         0         0         0         0         0
         0         0         0         0         0         0         0         0
         0         0         0         0         0         0         0         0
         0         0         0         0         0         0         0         0
         0         0         0         0         0         0         0         0
         0         0         0         0         0         0         0         0
         0         0         0         0         0         0         0         0
         0         0         0         0         0         0         0         0
         0         0         0         0         0         0         0         0
         0         0         0         0         0         0         0         0
         0         0         0         0         0         0         0         0
         0         0         0         0         0         0         0         0
         0         0         0         0         0         0         0         0
         0         0         0         0         0         0         0         0
         0         0         0         0         0         0         0         0
         0         0         0         0         0         0         0         0
         0         0         0         0         0         0         0         0
         0         0         0         0         0         0         0         0
         0         0         0         0         0         0         0         0
         0         0         0         0         0         0         0         0
         0         0         0         0         0         0         0         0
         0         0         0         0         0         0         0         0
         0         0         0         0         0         0         0         0
         0         0         0         0         0         0         0         0
         0         0         0         0         0         0         0         0
         0         0         0         0         0         0         0         0
         0         0         0         0         0         0         0         0
         0         0         0         0         0         0         0         0
         0         0         0         0         0         0         0         0
         0         0         0         0         0         0         0         0
         0         0         0         0         0         0         0         0
         0         0         0         0         0         0         0         0
         0         0         0         0         0         0         0         0
         0         0         0         0         0         0         0         0
         0         0         0         0         0         0         0         0
         0         0         0         0         0         0         0         0
         0         0         0         0         0         0         0         0
         0         0         0         0         0         0         0         0
         0         0         0         0         0         0         0         0
         0         0         0         0         0         0         0         0
         0         0         0         0         0         0         0         0
         0         0         0         0         0         0         0         0
         0         0         0         0         0         0         0         0
         0         0         0         0         0         0         0         0
         0         0         0         0         0         0         0         0
         0         0         0         0         0         0         0         0
         0         0         0         0         0         0         0         0
         0         0         0         0         0         0         0         0
         0         0         0         0         0         0         0         0
         0         0         0         0         0         0         0         0
         0         0         0         0         0         0         0         0
         0         0         0         0         0         0         0         0
         0         0         0         0         0         0         0         0
         0         0         0         0         0         0         0         0
         0         0         0         0         0         0         0         0
         0         0         0         0         0         0         0         0
         0         0         0         0         0         0         0         0
         0         0         0         0         0         0         0         0
         0         0         0         0         0         0         0         0
         0         0         0         0         0         0         0         0
         0         0         0         0         0         0         0         0
         0         0         0         0         0         0         0         0
         0         0         0         0         0         0         0         0
         0         0         0         0         0         0         0         0
         0         0         0         0         0         0         0         0
         0         0         0         0         0         0         0         0
         0         0         0         0         0         0         0         0
         0         0         0         0         0         0         0         0
         0         0         0         0         0         0         0         0
         0         0         0         0         0         0         0         0
         0         0         0         0         0         0         0         0
         0         0         0         0         0         0         0         0
         0         0         0         0         0         0         0         0
         0         0         0         0         0         0         0         0
         0         0         0         0         0         0         0         0
         0         0         0         0         0         0         0         0
         0         0         0         0         0         0         0         0
         0         0         0         0         0         0         0         0
         0         0         0         0         0         0         0         0
         0         0         0         0         0         0         0         0
         0         0         0         0         0         0         0         0
         0         0         0         0         0         0         0         0
         0         0         0         0         0         0         0         0
         0         0         0         0         0         0         0         0
         0         0         0         0         0         0         0         0
         0         0         0         0         0         0         0         0
         0         0         0         0         0         0         0         0
         0         0         0         0         0         0         0         0
         0         0         0         0         0         0         0         0
         0         0         0         0         0         0         0         0
         0         0         0         0         0         0         0         0
         0         0         0         0         0         0         0         0
         0         0         0         0         0         0         0         0
         0         0         0         0         0         0         0         0
         0         0         0         0         0         0         0         0
         0         0         0         0         0         0         0         0
         0         0         0         0         0         0         0         0
         0         0         0         0         0         0         0         0
         0         0         0         0         0         0         0         0
         0         0         0         0         0         0         0         0
         0         0         0         0         0         0         0         0
         0         0         0         0         0         0         0         0
         0         0         0         0         0         0         0         0
         0         0         0         0         0         0         0         0
         0         0         0         0         0         0         0         0
         0         0         0         0         0         0         0         0
         0         0         0         0         0         0         0         0
         0         0         0         0         0         0         0         0
         0         0         0         0         0         0         0         0
         0         0         0         0         0         0         0         0
         0         0         0         0         0         0         0         0
         0         0         0         0         0         0         0         0
         0         0         0         0         0         0         0         0
         0         0         0         0         0         0         0         0
         0         0         0         0         0         0         0         0
         0         0         0         0         0         0         0         0
         0         0         0         0         0         0         0         0
         0         0         0         0         0         0         0         0
         0         0         0         0         0         0         0         0
         0         0         0         0         0         0         0         0
         0         0         0         0         0         0         0         0
         0         0         0         0         0         0         0         0
         0         0         0         0         0         0         0         0
         0         0         0         0         0         0         0         0
         0         0         0         0         0         0         0         0
         0         0         0         0         0         0         0         0
         0         0         0         0         0         0         0         0
         0         0         0         0         0         0         0         0
         0         0         0         0         0         0         0         0
         0         0         0         0         0         0         0         0
         0         0         0         0         0         0         0         0
         0         0         0         0         0         0         0         0
         0         0         0         0         0         0         0         0
         0         0         0         0         0         0         0         0
         0         0         0         0         0         0         0         0
         0         0         0         0         0         0         0         0
         0         0         0         0         0         0         0         0
         0         0         0         0         0         0         0         0
         0         0         0         0         0         0         0         0
         0         0         0         0         0         0         0         0
         0         0         0         0         0         0         0         0
         0         0         0         0         0         0         0         0
         0         0         0         0         0         0         0         0
         0         0         0         0         0         0         0         0
         0         0         0         0         0         0         0         0
         0         0         0         0         0         0         0         0
         0         0         0         0         0         0         0         0
         0         0         0         0         0         0         0         0
         0         0         0         0         0         0         0         0
         0         0         0         0         0         0         0         0
         0         0         0         0         0         0         0         0
         0         0         0         0         0         0         0         0
         0         0         0         0         0         0         0         0
         0         0         0         0         0         0         0         0
         0         0         0         0         0         0         0         0
         0         0         0         0         0         0         0         0
         0         0         0         0         0         0         0         0
         0         0         0         0         0         0         0         0
         0         0         0         0         0         0         0         0
         0         0         0         0         0         0         0         0
         0         0         0         0         0         0         0         0
         0         0         0         0         0         0         0         0
         0         0         0         0         0         0         0         0
         0         0         0         0         0         0         0         0
         0         0         0         0         0         0         0         0
         0         0         0         0         0         0         0         0
         0         0         0         0         0         0         0         0
         0         0         0         0         0         0         0         0
         0         0         0         0         0         0         0         0
         0         0         0         0         0         0         0         0
         0         0         0         0         0         0         0         0
         0         0         0         0         0         0         0         0
         0         0         0         0         0         0         0         0
         0         0         0         0         0         0         0         0
         0         0         0         0         0         0         0         0
         0         0         0         0         0         0         0         0
         0         0         0         0         0         0         0         0
         0         0         0         0         0         0         0         0
         0         0         0         0         0         0         0         0
         0         0         0         0         0         0         0         0
         0         0         0         0         0         0         0         0
         0         0         0         0         0         0         0         0
         0         0         0         0         0         0         0         0
         0         0         0         0         0         0         0         0
         0         0         0         0         0         0         0         0
         0         0         0         0         0         0         0         0
         0         0         0         0         0         0         0         0
         0         0         0         0         0         0         0         0
         0         0         0         0         0         0         0         0
         0         0         0         0         0         0         0         0
         0         0         0         0         0         0         0         0
         0         0         0         0         0         0         0         0
         0         0         0         0         0         0         0         0
         0         0         0         0         0         0         0         0
         0         0         0         0         0         0         0         0
         0         0         0         0         0         0         0         0
         0         0         0         0         0         0         0         0
         0         0         0         0         0         0         0         0
         0         0         0         0         0         0         0         0
         0         0         0         0         0         0         0         0
         0         0         0         0         0         0         0         0
         0         0         0         0         0         0         0         0
         0         0         0         0         0         0         0         0
         0         0         0         0         0         0         0         0
         0         0         0         0         0         0         0         0
         0         0         0         0         0         0         0         0
         0         0         0         0         0         0         0         0
         0         0         0         0         0         0         0         0
         0         0         0         0         0         0         0         0
         0         0         0         0         0         0         0         0
         0         0         0         0         0         0         0         0
         0         0         0         0         0         0         0         0
         0         0         0         0         0         0         0         0
         0         0         0         0         0         0         0         0
         0         0         0         0         0         0         0         0
         0         0         0         0         0         0         0         0
         0         0         0         0         0         0         0         0
         0         0         0         0         0         0         0         0
         0         0         0         0         0         0         0         0
         0         0         0         0         0         0         0         0
         0         0         0         0         0         0         0         0
         0         0         0         0         0         0         0         0
         0         0         0         0         0         0         0         0
         0         0         0         0         0         0         0         0
         0         0         0         0         0         0         0         0
         0         0         0         0         0         0         0         0
         0         0         0         0         0         0         0         0
         0         0         0         0         0         0         0         0
         0         0         0         0         0         0         0         0
         0         0         0         0         0         0         0         0
         0         0         0         0         0         0         0         0
         0         0         0         0         0         0         0         0
         0         0         0         0         0         0         0         0
         0         0         0         0         0         0         0         0
         0         0         0         0         0         0         0         0
         0         0         0         0         0         0         0         0
         0         0         0         0         0         0         0         0
         0         0         0         0         0         0         0         0
         0         0         0         0         0         0         0         0
         0         0         0         0         0         0         0         0
         0         0         0         0         0         0         0         0
         0         0         0         0         0         0         0         0
         0         0         0         0         0         0         0         0
         0         0         0         0         0         0         0         0
         0         0         0         0         0         0         0         0
         0         0         0         0         0         0         0         0
         0         0         0         0         0         0         0         0
         0         0         0         0         0         0         0         0
         0         0         0         0         0         0         0         0
         0         0         0         0         0         0         0         0
         0         0         0         0         0         0         0         0
         0         0         0         0         0         0         0         0
         0         0         0         0         0         0         0         0
         0         0         0         0         0         0         0         0
         0         0         0         0         0         0         0         0
         0         0         0         0         0         0         0         0
         0         0         0         0         0         0         0         0
         0         0         0         0         0         0         0         0
         0         0         0         0         0         0         0         0
         0         0         0         0         0         0         0         0
         0         0         0         0         0         0         0         0
         0         0         0         0         0         0         0         0
         0         0         0         0         0         0         0         0
         0         0         0         0         0         0         0         0
         0         0         0         0         0         0         0         0
         0         0         0         0         0         0         0         0
         0         0         0         0         0         0         0         0
         0         0         0         0         0         0         0         0
         0         0         0         0         0         0         0         0
         0         0         0         0         0         0         0         0
         0         0         0         0         0         0         0         0
         0         0         0         0         0         0         0         0
         0         0         0         0         0         0         0         0
         0         0         0         0         0         0         0         0
         0         0         0         0         0         0         0         0
         0         0         0         0         0         0         0         0
         0         0         0         0         0         0         0         0
         0         0         0         0         0         0         0         0
         0         0         0         0         0         0         0         0
         0         0         0         0         0         0         0         0
         0         0         0         0         0         0         0         0
         0         0         0         0         0         0         0         0
         0         0         0         0         0         0         0         0
         0         0         0         0         0         0         0         0
         0         0         0         0         0         0         0         0
         0         0         0         0         0         0         0         0
         0         0         0         0         0         0         0         0
         0         0         0         0         0         0         0         0
         0         0         0         0         0         0         0         0
         0         0         0         0         0         0         0         0
         0         0         0         0         0         0         0         0
         0         0         0         0         0         0         0         0
         0         0         0         0         0         0         0         0
         0         0         0         0         0         0         0         0
         0         0         0         0         0         0         0         0
         0         0         0         0         0         0         0         0
         0         0         0         0         0         0         0         0
         0         0         0         0         0         0         0         0
         0         0         0         0         0         0         0         0
         0         0         0         0         0         0         0         0
         0         0         0         0         0         0         0         0
         0         0         0         0         0         0         0         0
         0         0         0         0         0         0         0         0
         0         0         0         0         0         0         0         0
         0         0         0         0         0         0         0         0
         0         0         0         0         0         0         0         0
         0         0         0         0         0         0         0         0
         0         0         0         0         0         0         0         0
         0         0         0         0         0         0         0         0
         0         0         0         0         0         0         0         0
         0         0         0         0         0         0         0         0
         0         0         0         0         0         0         0         0
         0         0         0         0         0         0         0         0
         0         0         0         0         0         0         0         0
         0         0         0         0         0         0         0         0
         0         0         0         0         0         0         0         0
         0         0         0         0         0         0         0         0
         0         0         0         0         0         0         0         0
         0         0         0         0         0         0         0         0
         0         0         0         0         0         0         0         0
         0         0         0         0         0         0         0         0
         0         0         0         0         0         0         0         0
         0         0         0         0         0         0         0         0
         0         0         0         0         0         0         0         0
         0         0         0         0         0         0         0         0
         0         0         0         0         0         0         0         0
         0         0         0         0         0         0         0         0
         0         0         0         0         0         0         0         0
         0         0         0         0         0         0         0         0
         0         0         0         0         0         0         0         0
         0         0         0         0         0         0         0         0
         0         0         0         0         0         0         0         0
         0         0         0         0         0         0         0         0
         0         0         0         0         0         0         0         0
         0         0         0         0         0         0         0         0
         0         0         0         0         0         0         0         0
         0         0         0         0         0         0         0         0
         0         0         0         0         0         0         0         0
         0         0         0         0         0         0         0         0
         0         0         0         0         0         0         0         0
         0         0         0         0         0         0         0         0
         0         0         0         0         0         0         0         0
         0         0         0         0         0         0         0         0
         0         0         0         0         0         0         0         0
         0         0         0         0         0         0         0         0
         0         0         0         0         0         0         0         0
         0         0         0         0         0         0         0         0
         0         0         0         0         0         0         0         0
         0         0         0         0         0         0         0         0
         0         0         0         0         0         0         0         0
         0         0         0         0         0         0         0         0
         0         0         0         0         0         0         0         0
         0         0         0         0         0         0         0         0
         0         0         0         0         0         0         0         0
         0         0         0         0         0         0         0         0
         0         0         0         0         0         0         0         0
         0         0         0         0         0         0         0         0
         0         0         0         0         0         0         0         0
         0         0         0         0         0         0         0         0
         0         0         0         0         0         0         0         0
         0         0         0         0         0         0         0         0
         0         0         0         0         0         0         0         0
         0         0         0         0         0         0         0         0
         0         0         0         0         0         0         0         0
         0         0         0         0         0         0         0         0
         0         0         0         0         0         0         0         0
         0         0         0         0         0         0         0         0
         0         0         0         0         0         0         0         0
         0         0         0         0         0         0         0         0
         0         0         0         0         0         0         0         0
         0         0         0         0         0         0         0         0
         0         0         0         0         0         0         0         0
         0         0         0         0         0         0         0         0
         0         0         0         0         0         0         0         0
         0         0         0         0         0         0         0         0
         0         0         0         0         0         0         0         0
         0         0         0         0         0         0         0         0
         0         0         0         0         0         0         0         0
         0         0         0         0         0         0         0         0
         0         0         0         0         0         0         0         0
         0         0         0         0         0         0         0         0
         0         0         0         0         0         0         0         0
         0         0         0         0         0         0         0         0
         0         0         0         0         0         0         0         0
         0         0         0         0         0         0         0         0
         0         0         0         0         0         0         0         0
         0         0         0         0         0         0         0         0
         0         0         0         0         0         0         0         0
         0         0         0         0         0         0         0         0
         0         0         0         0         0         0         0         0
         0         0         0         0         0         0         0         0
         0         0         0         0         0         0         0         0
         0         0         0         0         0         0         0         0
         0         0         0         0         0         0         0         0
         0         0         0         0         0         0         0         0
         0         0         0         0         0         0         0         0
         0         0         0         0         0         0         0         0
         0         0         0         0         0         0         0         0
         0         0         0         0         0         0         0         0
         0         0         0         0         0         0         0         0
         0         0         0         0         0         0         0         0
         0         0         0         0         0         0         0         0
         0         0         0         0         0         0         0         0
         0         0         0         0         0         0         0         0
         0         0         0         0         0         0         0         0
         0         0         0         0         0         0         0         0
         0         0         0         0         0         0         0         0
         0         0         0         0         0         0         0         0
         0         0         0         0         0         0         0         0
         0         0         0         0         0         0         0         0
         0         0         0         0         0         0         0         0
         0         0         0         0         0         0         0         0
         0         0         0         0         0         0         0         0
         0         0         0         0         0         0         0         0
         0         0         0         0         0         0         0         0
         0         0         0         0         0         0         0         0
         0         0         0         0         0         0         0         0
         0         0         0         0         0         0         0         0
         0         0         0         0         0         0         0         0
         0         0         0         0         0         0         0         0
         0         0         0         0         0         0         0         0
         0         0         0         0         0         0         0         0
         0         0         0         0         0         0         0         0
         0         0         0         0         0         0         0         0
         0         0         0         0         0         0         0         0
         0         0         0         0         0         0         0         0
         0         0         0         0         0         0         0         0
         0         0         0         0         0         0         0         0
         0         0         0         0         0         0         0         0
         0         0         0         0         0         0         0         0
         0         0         0         0         0         0         0         0
         0         0         0         0         0         0         0         0
         0         0         0         0         0         0         0         0
         0         0         0         0         0         0         0         0
         0         0         0         0         0         0         0         0
         0         0         0         0         0         0         0         0
         0         0         0         0         0         0         0         0
         0         0         0         0         0         0         0         0
         0         0         0         0         0         0         0         0
         0         0         0         0         0         0         0         0
         0         0         0         0         0         0         0         0
         0         0         0         0         0         0         0         0
         0         0         0         0         0         0         0         0
         0         0         0         0         0         0         0         0
         0         0         0         0         0         0         0         0
         0         0         0         0         0         0         0         0
         0         0         0         0         0         0         0         0
         0         0         0         0         0         0         0         0
         0         0         0         0         0         0         0         0
         0         0         0         0         0         0         0         0
         0         0         0         0         0         0         0         0
         0         0         0         0         0         0         0         0
         0         0         0         0         0         0         0         0
         0         0         0         0         0         0         0         0
         0         0         0         0         0         0         0         0
         0         0         0         0         0         0         0         0
         0         0         0         0         0         0         0         0
         0         0         0         0

      9292         0 !NGRP NST2
         0         2         0        16         2         0        27         1         0
        35         1         0        44         1         0        47         1         0
        50         1         0        53         1         0        56         1         0
        59         1         0        62         1         0        64         1         0
        66         1         0        69         1         0        72         1         0
        75         1         0        78         1         0        81         1         0
        84         1         0        87         1         0        91         1         0
        94         1         0        97         1         0       100         1         0
       103         1         0       106         1         0       109         1         0
       112         1         0       115         1         0       118         1         0
       121         1         0       124         1         0       127         1         0
       130         1         0       134         2         0       150         2         0
       161         1         0       169         1         0       178         1         0
       181         1         0       184         1         0       187         1         0
       190         1         0       193         1         0       196         1         0
       198         1         0       200         1         0       203         1         0
       206         1         0       209         1         0       212         1         0
       215         1         0       218         1         0       221         1         0
       225         1         0       228         1         0       231         1         0
       234         1         0       237         1         0       240         1         0
       243         1         0       246         1         0       249         1         0
       252         1         0       255         1         0       258         1         0
       261         1         0       264         1         0       268         2         0
       284         2         0       295         1         0       303         1         0
       312         1         0       315         1         0       318         1         0
       321         1         0       324         1         0       327         1         0
       330         1         0       332         1         0       334         1         0
       337         1         0       340         1         0       343         1         0
       346         1         0       349         1         0       352         1         0
       355         1         0       359         1         0       362         1         0
       365         1         0       368         1         0       371         1         0
       374         1         0       377         1         0       380         1         0
       383         1         0       386         1         0       389         1         0
       392         1         0       395         1         0       398         1         0
       402         2         0       418         2         0       429         1         0
       437         1         0       446         1         0       449         1         0
       452         1         0       455         1         0       458         1         0
       461         1         0       464         1         0       466         1         0
       468         1         0       471         1         0       474         1         0
       477         1         0       480         1         0       483         1         0
       486         1         0       489         1         0       493         1         0
       496         1         0       499         1         0       502         1         0
       505         1         0       508         1         0       511         1         0
       514         1         0       517         1         0       520         1         0
       523         1         0       526         1         0       529         1         0
       532         1         0       536         2         0       552         2         0
       563         1         0       571         1         0       580         1         0
       583         1         0       586         1         0       589         1         0
       592         1         0       595         1         0       598         1         0
       600         1         0       602         1         0       605         1         0
       608         1         0       611         1         0       614         1         0
       617         1         0       620         1         0       623         1         0
       627         1         0       630         1         0       633         1         0
       636         1         0       639         1         0       642         1         0
       645         1         0       648         1         0       651         1         0
       654         1         0       657         1         0       660         1         0
       663         1         0       666         1         0       670         2         0
       686         2         0       697         1         0       705         1         0
       714         1         0       717         1         0       720         1         0
       723         1         0       726         1         0       729         1         0
       732         1         0       734         1         0       736         1         0
       739         1         0       742         1         0       745         1         0
       748         1         0       751         1         0       754         1         0
       757         1         0       761         1         0       764         1         0
       767         1         0       770         1         0       773         1         0
       776         1         0       779         1         0       782         1         0
       785         1         0       788         1         0       791         1         0
       794         1         0       797         1         0       800         1         0
       804         2         0       820         2         0       831         1         0
       839         1         0       848         1         0       851         1         0
       854         1         0       857         1         0       860         1         0
       863         1         0       866         1         0       868         1         0
       870         1         0       873         1         0       876         1         0
       879         1         0       882         1         0       885         1         0
       888         1         0       891         1         0       895         1         0
       898         1         0       901         1         0       904         1         0
       907         1         0       910         1         0       913         1         0
       916         1         0       919         1         0       922         1         0
       925         1         0       928         1         0       931         1         0
       934         1         0       938         2         0       954         2         0
       965         1         0       973         1         0       982         1         0
       985         1         0       988         1         0       991         1         0
       994         1         0       997         1         0      1000         1         0
      1002         1         0      1004         1         0      1007         1         0
      1010         1         0      1013         1         0      1016         1         0
      1019         1         0      1022         1         0      1025         1         0
      1029         1         0      1032         1         0      1035         1         0
      1038         1         0      1041         1         0      1044         1         0
      1047         1         0      1050         1         0      1053         1         0
      1056         1         0      1059         1         0      1062         1         0
      1065         1         0      1068         1         0      1072         2         0
      1088         2         0      1099         1         0      1107         1         0
      1116         1         0      1119         1         0      1122         1         0
      1125         1         0      1128         1         0      1131         1         0
      1134         1         0      1136         1         0      1138         1         0
      1141         1         0      1144         1         0      1147         1         0
      1150         1         0      1153         1         0      1156         1         0
      1159         1         0      1163         1         0      1166         1         0
      1169         1         0      1172         1         0      1175         1         0
      1178         1         0      1181         1         0      1184         1         0
      1187         1         0      1190         1         0      1193         1         0
      1196         1         0      1199         1         0      1202         1         0
      1206         2         0      1222         2         0      1233         1         0
      1241         1         0      1250         1         0      1253         1         0
      1256         1         0      1259         1         0      1262         1         0
      1265         1         0      1268         1         0      1270         1         0
      1272         1         0      1275         1         0      1278         1         0
      1281         1         0      1284         1         0      1287         1         0
      1290         1         0      1293         1         0      1297         1         0
      1300         1         0      1303         1         0      1306         1         0
      1309         1         0      1312         1         0      1315         1         0
      1318         1         0      1321         1         0      1324         1         0
      1327         1         0      1330         1         0      1333         1         0
      1336         1         0      1340         2         0      1356         2         0
      1367         1         0      1375         1         0      1384         1         0
      1387         1         0      1390         1         0      1393         1         0
      1396         1         0      1399         1         0      1402         1         0
      1404         1         0      1406         1         0      1409         1         0
      1412         1         0      1415         1         0      1418         1         0
      1421         1         0      1424         1         0      1427         1         0
      1431         1         0      1434         1         0      1437         1         0
      1440         1         0      1443         1         0      1446         1         0
      1449         1         0      1452         1         0      1455         1         0
      1458         1         0      1461         1         0      1464         1         0
      1467         1         0      1470         1         0      1474         2         0
      1490         2         0      1501         1         0      1509         1         0
      1518         1         0      1521         1         0      1524         1         0
      1527         1         0      1530         1         0      1533         1         0
      1536         1         0      1538         1         0      1540         1         0
      1543         1         0      1546         1         0      1549         1         0
      1552         1         0      1555         1         0      1558         1         0
      1561         1         0      1565         1         0      1568         1         0
      1571         1         0      1574         1         0      1577         1         0
      1580         1         0      1583         1         0      1586         1         0
      1589         1         0      1592         1         0      1595         1         0
      1598         1         0      1601         1         0      1604         1         0
      1608         2         0      1624         2         0      1635         1         0
      1643         1         0      1652         1         0      1655         1         0
      1658         1         0      1661         1         0      1664         1         0
      1667         1         0      1670         1         0      1672         1         0
      1674         1         0      1677         1         0      1680         1         0
      1683         1         0      1686         1         0      1689         1         0
      1692         1         0      1695         1         0      1699         1         0
      1702         1         0      1705         1         0      1708         1         0
      1711         1         0      1714         1         0      1717         1         0
      1720         1         0      1723         1         0      1726         1         0
      1729         1         0      1732         1         0      1735         1         0
      1738         1         0      1742         2         0      1758         2         0
      1769         1         0      1777         1         0      1786         1         0
      1789         1         0      1792         1         0      1795         1         0
      1798         1         0      1801         1         0      1804         1         0
      1806         1         0      1808         1         0      1811         1         0
      1814         1         0      1817         1         0      1820         1         0
      1823         1         0      1826         1         0      1829         1         0
      1833         1         0      1836         1         0      1839         1         0
      1842         1         0      1845         1         0      1848         1         0
      1851         1         0      1854         1         0      1857         1         0
      1860         1         0      1863         1         0      1866         1         0
      1869         1         0      1872         1         0      1876         2         0
      1892         2         0      1903         1         0      1911         1         0
      1920         1         0      1923         1         0      1926         1         0
      1929         1         0      1932         1         0      1935         1         0
      1938         1         0      1940         1         0      1942         1         0
      1945         1         0      1948         1         0      1951         1         0
      1954         1         0      1957         1         0      1960         1         0
      1963         1         0      1967         1         0      1970         1         0
      1973         1         0      1976         1         0      1979         1         0
      1982         1         0      1985         1         0      1988         1         0
      1991         1         0      1994         1         0      1997         1         0
      2000         1         0      2003         1         0      2006         1         0
      2010         2         0      2026         2         0      2037         1         0
      2045         1         0      2054         1         0      2057         1         0
      2060         1         0      2063         1         0      2066         1         0
      2069         1         0      2072         1         0      2074         1         0
      2076         1         0      2079         1         0      2082         1         0
      2085         1         0      2088         1         0      2091         1         0
      2094         1         0      2097         1         0      2101         1         0
      2104         1         0      2107         1         0      2110         1         0
      2113         1         0      2116         1         0      2119         1         0
      2122         1         0      2125         1         0      2128         1         0
      2131         1         0      2134         1         0      2137         1         0
      2140         1         0      2144         2         0      2160         2         0
      2171         1         0      2179         1         0      2188         1         0
      2191         1         0      2194         1         0      2197         1         0
      2200         1         0      2203         1         0      2206         1         0
      2208         1         0      2210         1         0      2213         1         0
      2216         1         0      2219         1         0      2222         1         0
      2225         1         0      2228         1         0      2231         1         0
      2235         1         0      2238         1         0      2241         1         0
      2244         1         0      2247         1         0      2250         1         0
      2253         1         0      2256         1         0      2259         1         0
      2262         1         0      2265         1         0      2268         1         0
      2271         1         0      2274         1         0      2278         2         0
      2294         2         0      2305         1         0      2313         1         0
      2322         1         0      2325         1         0      2328         1         0
      2331         1         0      2334         1         0      2337         1         0
      2340         1         0      2342         1         0      2344         1         0
      2347         1         0      2350         1         0      2353         1         0
      2356         1         0      2359         1         0      2362         1         0
      2365         1         0      2369         1         0      2372         1         0
      2375         1         0      2378         1         0      2381         1         0
      2384         1         0      2387         1         0      2390         1         0
      2393         1         0      2396         1         0      2399         1         0
      2402         1         0      2405         1         0      2408         1         0
      2412         2         0      2428         2         0      2439         1         0
      2447         1         0      2456         1         0      2459         1         0
      2462         1         0      2465         1         0      2468         1         0
      2471         1         0      2474         1         0      2476         1         0
      2478         1         0      2481         1         0      2484         1         0
      2487         1         0      2490         1         0      2493         1         0
      2496         1         0      2499         1         0      2503         1         0
      2506         1         0      2509         1         0      2512         1         0
      2515         1         0      2518         1         0      2521         1         0
      2524         1         0      2527         1         0      2530         1         0
      2533         1         0      2536         1         0      2539         1         0
      2542         1         0      2546         2         0      2562         2         0
      2573         1         0      2581         1         0      2590         1         0
      2593         1         0      2596         1         0      2599         1         0
      2602         1         0      2605         1         0      2608         1         0
      2610         1         0      2612         1         0      2615         1         0
      2618         1         0      2621         1         0      2624         1         0
      2627         1         0      2630         1         0      2633         1         0
      2637         1         0      2640         1         0      2643         1         0
      2646         1         0      2649         1         0      2652         1         0
      2655         1         0      2658         1         0      2661         1         0
      2664         1         0      2667         1         0      2670         1         0
      2673         1         0      2676         1         0      2680         2         0
      2696         2         0      2707         1         0      2715         1         0
      2724         1         0      2727         1         0      2730         1         0
      2733         1         0      2736         1         0      2739         1         0
      2742         1         0      2744         1         0      2746         1         0
      2749         1         0      2752         1         0      2755         1         0
      2758         1         0      2761         1         0      2764         1         0
      2767         1         0      2771         1         0      2774         1         0
      2777         1         0      2780         1         0      2783         1         0
      2786         1         0      2789         1         0      2792         1         0
      2795         1         0      2798         1         0      2801         1         0
      2804         1         0      2807         1         0      2810         1         0
      2814         2         0      2830         2         0      2841         1         0
      2849         1         0      2858         1         0      2861         1         0
      2864         1         0      2867         1         0      2870         1         0
      2873         1         0      2876         1         0      2878         1         0
      2880         1         0      2883         1         0      2886         1         0
      2889         1         0      2892         1         0      2895         1         0
      2898         1         0      2901         1         0      2905         1         0
      2908         1         0      2911         1         0      2914         1         0
      2917         1         0      2920         1         0      2923         1         0
      2926         1         0      2929         1         0      2932         1         0
      2935         1         0      2938         1         0      2941         1         0
      2944         1         0      2948         2         0      2964         2         0
      2975         1         0      2983         1         0      2992         1         0
      2995         1         0      2998         1         0      3001         1         0
      3004         1         0      3007         1         0      3010         1         0
      3012         1         0      3014         1         0      3017         1         0
      3020         1         0      3023         1         0      3026         1         0
      3029         1         0      3032         1         0      3035         1         0
      3039         1         0      3042         1         0      3045         1         0
      3048         1         0      3051         1         0      3054         1         0
      3057         1         0      3060         1         0      3063         1         0
      3066         1         0      3069         1         0      3072         1         0
      3075         1         0      3078         1         0      3082         2         0
      3098         2         0      3109         1         0      3117         1         0
      3126         1         0      3129         1         0      3132         1         0
      3135         1         0      3138         1         0      3141         1         0
      3144         1         0      3146         1         0      3148         1         0
      3151         1         0      3154         1         0      3157         1         0
      3160         1         0      3163         1         0      3166         1         0
      3169         1         0      3173         1         0      3176         1         0
      3179         1         0      3182         1         0      3185         1         0
      3188         1         0      3191         1         0      3194         1         0
      3197         1         0      3200         1         0      3203         1         0
      3206         1         0      3209         1         0      3212         1         0
      3216         2         0      3232         2         0      3243         1         0
      3251         1         0      3260         1         0      3263         1         0
      3266         1         0      3269         1         0      3272         1         0
      3275         1         0      3278         1         0      3280         1         0
      3282         1         0      3285         1         0      3288         1         0
      3291         1         0      3294         1         0      3297         1         0
      3300         1         0      3303         1         0      3307         1         0
      3310         1         0      3313         1         0      3316         1         0
      3319         1         0      3322         1         0      3325         1         0
      3328         1         0      3331         1         0      3334         1         0
      3337         1         0      3340         1         0      3343         1         0
      3346         1         0      3350         2         0      3366         2         0
      3377         1         0      3385         1         0      3394         1         0
      3397         1         0      3400         1         0      3403         1         0
      3406         1         0      3409         1         0      3412         1         0
      3414         1         0      3416         1         0      3419         1         0
      3422         1         0      3425         1         0      3428         1         0
      3431         1         0      3434         1         0      3437         1         0
      3441         1         0      3444         1         0      3447         1         0
      3450         1         0      3453         1         0      3456         1         0
      3459         1         0      3462         1         0      3465         1         0
      3468         1         0      3471         1         0      3474         1         0
      3477         1         0      3480         1         0      3484         2         0
      3500         2         0      3511         1         0      3519         1         0
      3528         1         0      3531         1         0      3534         1         0
      3537         1         0      3540         1         0      3543         1         0
      3546         1         0      3548         1         0      3550         1         0
      3553         1         0      3556         1         0      3559         1         0
      3562         1         0      3565         1         0      3568         1         0
      3571         1         0      3575         1         0      3578         1         0
      3581         1         0      3584         1         0      3587         1         0
      3590         1         0      3593         1         0      3596         1         0
      3599         1         0      3602         1         0      3605         1         0
      3608         1         0      3611         1         0      3614         1         0
      3618         2         0      3634         2         0      3645         1         0
      3653         1         0      3662         1         0      3665         1         0
      3668         1         0      3671         1         0      3674         1         0
      3677         1         0      3680         1         0      3682         1         0
      3684         1         0      3687         1         0      3690         1         0
      3693         1         0      3696         1         0      3699         1         0
      3702         1         0      3705         1         0      3709         1         0
      3712         1         0      3715         1         0      3718         1         0
      3721         1         0      3724         1         0      3727         1         0
      3730         1         0      3733         1         0      3736         1         0
      3739         1         0      3742         1         0      3745         1         0
      3748         1         0      3752         2         0      3768         2         0
      3779         1         0      3787         1         0      3796         1         0
      3799         1         0      3802         1         0      3805         1         0
      3808         1         0      3811         1         0      3814         1         0
      3816         1         0      3818         1         0      3821         1         0
      3824         1         0      3827         1         0      3830         1         0
      3833         1         0      3836         1         0      3839         1         0
      3843         1         0      3846         1         0      3849         1         0
      3852         1         0      3855         1         0      3858         1         0
      3861         1         0      3864         1         0      3867         1         0
      3870         1         0      3873         1         0      3876         1         0
      3879         1         0      3882         1         0      3886         2         0
      3902         2         0      3913         1         0      3921         1         0
      3930         1         0      3933         1         0      3936         1         0
      3939         1         0      3942         1         0      3945         1         0
      3948         1         0      3950         1         0      3952         1         0
      3955         1         0      3958         1         0      3961         1         0
      3964         1         0      3967         1         0      3970         1         0
      3973         1         0      3977         1         0      3980         1         0
      3983         1         0      3986         1         0      3989         1         0
      3992         1         0      3995         1         0      3998         1         0
      4001         1         0      4004         1         0      4007         1         0
      4010         1         0      4013         1         0      4016         1         0
      4020         2         0      4036         2         0      4047         1         0
      4055         1         0      4064         1         0      4067         1         0
      4070         1         0      4073         1         0      4076         1         0
      4079         1         0      4082         1         0      4084         1         0
      4086         1         0      4089         1         0      4092         1         0
      4095         1         0      4098         1         0      4101         1         0
      4104         1         0      4107         1         0      4111         1         0
      4114         1         0      4117         1         0      4120         1         0
      4123         1         0      4126         1         0      4129         1         0
      4132         1         0      4135         1         0      4138         1         0
      4141         1         0      4144         1         0      4147         1         0
      4150         1         0      4154         2         0      4170         2         0
      4181         1         0      4189         1         0      4198         1         0
      4201         1         0      4204         1         0      4207         1         0
      4210         1         0      4213         1         0      4216         1         0
      4218         1         0      4220         1         0      4223         1         0
      4226         1         0      4229         1         0      4232         1         0
      4235         1         0      4238         1         0      4241         1         0
      4245         1         0      4248         1         0      4251         1         0
      4254         1         0      4257         1         0      4260         1         0
      4263         1         0      4266         1         0      4269         1         0
      4272         1         0      4275         1         0      4278         1         0
      4281         1         0      4284         1         0      4288         2         0
      4304         2         0      4315         1         0      4323         1         0
      4332         1         0      4335         1         0      4338         1         0
      4341         1         0      4344         1         0      4347         1         0
      4350         1         0      4352         1         0      4354         1         0
      4357         1         0      4360         1         0      4363         1         0
      4366         1         0      4369         1         0      4372         1         0
      4375         1         0      4379         1         0      4382         1         0
      4385         1         0      4388         1         0      4391         1         0
      4394         1         0      4397         1         0      4400         1         0
      4403         1         0      4406         1         0      4409         1         0
      4412         1         0      4415         1         0      4418         1         0
      4422         2         0      4438         2         0      4449         1         0
      4457         1         0      4466         1         0      4469         1         0
      4472         1         0      4475         1         0      4478         1         0
      4481         1         0      4484         1         0      4486         1         0
      4488         1         0      4491         1         0      4494         1         0
      4497         1         0      4500         1         0      4503         1         0
      4506         1         0      4509         1         0      4513         1         0
      4516         1         0      4519         1         0      4522         1         0
      4525         1         0      4528         1         0      4531         1         0
      4534         1         0      4537         1         0      4540         1         0
      4543         1         0      4546         1         0      4549         1         0
      4552         1         0      4556         2         0      4572         2         0
      4583         1         0      4591         1         0      4600         1         0
      4603         1         0      4606         1         0      4609         1         0
      4612         1         0      4615         1         0      4618         1         0
      4620         1         0      4622         1         0      4625         1         0
      4628         1         0      4631         1         0      4634         1         0
      4637         1         0      4640         1         0      4643         1         0
      4647         1         0      4650         1         0      4653         1         0
      4656         1         0      4659         1         0      4662         1         0
      4665         1         0      4668         1         0      4671         1         0
      4674         1         0      4677         1         0      4680         1         0
      4683         1         0      4686         1         0      4690         2         0
      4706         2         0      4717         1         0      4725         1         0
      4734         1         0      4737         1         0      4740         1         0
      4743         1         0      4746         1         0      4749         1         0
      4752         1         0      4754         1         0      4756         1         0
      4759         1         0      4762         1         0      4765         1         0
      4768         1         0      4771         1         0      4774         1         0
      4777         1         0      4781         1         0      4784         1         0
      4787         1         0      4790         1         0      4793         1         0
      4796         1         0      4799         1         0      4802         1         0
      4805         1         0      4808         1         0      4811         1         0
      4814         1         0      4817         1         0      4820         1         0
      4824         2         0      4840         2         0      4851         1         0
      4859         1         0      4868         1         0      4871         1         0
      4874         1         0      4877         1         0      4880         1         0
      4883         1         0      4886         1         0      4888         1         0
      4890         1         0      4893         1         0      4896         1         0
      4899         1         0      4902         1         0      4905         1         0
      4908         1         0      4911         1         0      4915         1         0
      4918         1         0      4921         1         0      4924         1         0
      4927         1         0      4930         1         0      4933         1         0
      4936         1         0      4939         1         0      4942         1         0
      4945         1         0      4948         1         0      4951         1         0
      4954         1         0      4958         2         0      4974         2         0
      4985         1         0      4993         1         0      5002         1         0
      5005         1         0      5008         1         0      5011         1         0
      5014         1         0      5017         1         0      5020         1         0
      5022         1         0      5024         1         0      5027         1         0
      5030         1         0      5033         1         0      5036         1         0
      5039         1         0      5042         1         0      5045         1         0
      5049         1         0      5052         1         0      5055         1         0
      5058         1         0      5061         1         0      5064         1         0
      5067         1         0      5070         1         0      5073         1         0
      5076         1         0      5079         1         0      5082         1         0
      5085         1         0      5088         1         0      5092         2         0
      5108         2         0      5119         1         0      5127         1         0
      5136         1         0      5139         1         0      5142         1         0
      5145         1         0      5148         1         0      5151         1         0
      5154         1         0      5156         1         0      5158         1         0
      5161         1         0      5164         1         0      5167         1         0
      5170         1         0      5173         1         0      5176         1         0
      5179         1         0      5183         1         0      5186         1         0
      5189         1         0      5192         1         0      5195         1         0
      5198         1         0      5201         1         0      5204         1         0
      5207         1         0      5210         1         0      5213         1         0
      5216         1         0      5219         1         0      5222         1         0
      5226         2         0      5242         2         0      5253         1         0
      5261         1         0      5270         1         0      5273         1         0
      5276         1         0      5279         1         0      5282         1         0
      5285         1         0      5288         1         0      5290         1         0
      5292         1         0      5295         1         0      5298         1         0
      5301         1         0      5304         1         0      5307         1         0
      5310         1         0      5313         1         0      5317         1         0
      5320         1         0      5323         1         0      5326         1         0
      5329         1         0      5332         1         0      5335         1         0
      5338         1         0      5341         1         0      5344         1         0
      5347         1         0      5350         1         0      5353         1         0
      5356         1         0      5360         2         0      5376         2         0
      5387         1         0      5395         1         0      5404         1         0
      5407         1         0      5410         1         0      5413         1         0
      5416         1         0      5419         1         0      5422         1         0
      5424         1         0      5426         1         0      5429         1         0
      5432         1         0      5435         1         0      5438         1         0
      5441         1         0      5444         1         0      5447         1         0
      5451         1         0      5454         1         0      5457         1         0
      5460         1         0      5463         1         0      5466         1         0
      5469         1         0      5472         1         0      5475         1         0
      5478         1         0      5481         1         0      5484         1         0
      5487         1         0      5490         1         0      5494         2         0
      5510         2         0      5521         1         0      5529         1         0
      5538         1         0      5541         1         0      5544         1         0
      5547         1         0      5550         1         0      5553         1         0
      5556         1         0      5558         1         0      5560         1         0
      5563         1         0      5566         1         0      5569         1         0
      5572         1         0      5575         1         0      5578         1         0
      5581         1         0      5585         1         0      5588         1         0
      5591         1         0      5594         1         0      5597         1         0
      5600         1         0      5603         1         0      5606         1         0
      5609         1         0      5612         1         0      5615         1         0
      5618         1         0      5621         1         0      5624         1         0
      5628         2         0      5644         2         0      5655         1         0
      5663         1         0      5672         1         0      5675         1         0
      5678         1         0      5681         1         0      5684         1         0
      5687         1         0      5690         1         0      5692         1         0
      5694         1         0      5697         1         0      5700         1         0
      5703         1         0      5706         1         0      5709         1         0
      5712         1         0      5715         1         0      5719         1         0
      5722         1         0      5725         1         0      5728         1         0
      5731         1         0      5734         1         0      5737         1         0
      5740         1         0      5743         1         0      5746         1         0
      5749         1         0      5752         1         0      5755         1         0
      5758         1         0      5762         2         0      5778         2         0
      5789         1         0      5797         1         0      5806         1         0
      5809         1         0      5812         1         0      5815         1         0
      5818         1         0      5821         1         0      5824         1         0
      5826         1         0      5828         1         0      5831         1         0
      5834         1         0      5837         1         0      5840         1         0
      5843         1         0      5846         1         0      5849         1         0
      5853         1         0      5856         1         0      5859         1         0
      5862         1         0      5865         1         0      5868         1         0
      5871         1         0      5874         1         0      5877         1         0
      5880         1         0      5883         1         0      5886         1         0
      5889         1         0      5892         1         0      5896         2         0
      5912         2         0      5923         1         0      5931         1         0
      5940         1         0      5943         1         0      5946         1         0
      5949         1         0      5952         1         0      5955         1         0
      5958         1         0      5960         1         0      5962         1         0
      5965         1         0      5968         1         0      5971         1         0
      5974         1         0      5977         1         0      5980         1         0
      5983         1         0      5987         1         0      5990         1         0
      5993         1         0      5996         1         0      5999         1         0
      6002         1         0      6005         1         0      6008         1         0
      6011         1         0      6014         1         0      6017         1         0
      6020         1         0      6023         1         0      6026         1         0
      6030         2         0      6046         2         0      6057         1         0
      6065         1         0      6074         1         0      6077         1         0
      6080         1         0      6083         1         0      6086         1         0
      6089         1         0      6092         1         0      6094         1         0
      6096         1         0      6099         1         0      6102         1         0
      6105         1         0      6108         1         0      6111         1         0
      6114         1         0      6117         1         0      6121         1         0
      6124         1         0      6127         1         0      6130         1         0
      6133         1         0      6136         1         0      6139         1         0
      6142         1         0      6145         1         0      6148         1         0
      6151         1         0      6154         1         0      6157         1         0
      6160         1         0      6164         2         0      6180         2         0
      6191         1         0      6199         1         0      6208         1         0
      6211         1         0      6214         1         0      6217         1         0
      6220         1         0      6223         1         0      6226         1         0
      6228         1         0      6230         1         0      6233         1         0
      6236         1         0      6239         1         0      6242         1         0
      6245         1         0      6248         1         0      6251         1         0
      6255         1         0      6258         1         0      6261         1         0
      6264         1         0      6267         1         0      6270         1         0
      6273         1         0      6276         1         0      6279         1         0
      6282         1         0      6285         1         0      6288         1         0
      6291         1         0      6294         1         0      6298         2         0
      6314         2         0      6325         1         0      6333         1         0
      6342         1         0      6345         1         0      6348         1         0
      6351         1         0      6354         1         0      6357         1         0
      6360         1         0      6362         1         0      6364         1         0
      6367         1         0      6370         1         0      6373         1         0
      6376         1         0      6379         1         0      6382         1         0
      6385         1         0      6389         1         0      6392         1         0
      6395         1         0      6398         1         0      6401         1         0
      6404         1         0      6407         1         0      6410         1         0
      6413         1         0      6416         1         0      6419         1         0
      6422         1         0      6425         1         0      6428         1         0
      6432         2         0      6448         2         0      6459         1         0
      6467         1         0      6476         1         0      6479         1         0
      6482         1         0      6485         1         0      6488         1         0
      6491         1         0      6494         1         0      6496         1         0
      6498         1         0      6501         1         0      6504         1         0
      6507         1         0      6510         1         0      6513         1         0
      6516         1         0      6519         1         0      6523         1         0
      6526         1         0      6529         1         0      6532         1         0
      6535         1         0      6538         1         0      6541         1         0
      6544         1         0      6547         1         0      6550         1         0
      6553         1         0      6556         1         0      6559         1         0
      6562         1         0      6566         2         0      6582         2         0
      6593         1         0      6601         1         0      6610         1         0
      6613         1         0      6616         1         0      6619         1         0
      6622         1         0      6625         1         0      6628         1         0
      6630         1         0      6632         1         0      6635         1         0
      6638         1         0      6641         1         0      6644         1         0
      6647         1         0      6650         1         0      6653         1         0
      6657         1         0      6660         1         0      6663         1         0
      6666         1         0      6669         1         0      6672         1         0
      6675         1         0      6678         1         0      6681         1         0
      6684         1         0      6687         1         0      6690         1         0
      6693         1         0      6696         1         0      6700         2         0
      6716         2         0      6727         1         0      6735         1         0
      6744         1         0      6747         1         0      6750         1         0
      6753         1         0      6756         1         0      6759         1         0
      6762         1         0      6764         1         0      6766         1         0
      6769         1         0      6772         1         0      6775         1         0
      6778         1         0      6781         1         0      6784         1         0
      6787         1         0      6791         1         0      6794         1         0
      6797         1         0      6800         1         0      6803         1         0
      6806         1         0      6809         1         0      6812         1         0
      6815         1         0      6818         1         0      6821         1         0
      6824         1         0      6827         1         0      6830         1         0
      6834         2         0      6850         2         0      6861         1         0
      6869         1         0      6878         1         0      6881         1         0
      6884         1         0      6887         1         0      6890         1         0
      6893         1         0      6896         1         0      6898         1         0
      6900         1         0      6903         1         0      6906         1         0
      6909         1         0      6912         1         0      6915         1         0
      6918         1         0      6921         1         0      6925         1         0
      6928         1         0      6931         1         0      6934         1         0
      6937         1         0      6940         1         0      6943         1         0
      6946         1         0      6949         1         0      6952         1         0
      6955         1         0      6958         1         0      6961         1         0
      6964         1         0      6968         2         0      6984         2         0
      6995         1         0      7003         1         0      7012         1         0
      7015         1         0      7018         1         0      7021         1         0
      7024         1         0      7027         1         0      7030         1         0
      7032         1         0      7034         1         0      7037         1         0
      7040         1         0      7043         1         0      7046         1         0
      7049         1         0      7052         1         0      7055         1         0
      7059         1         0      7062         1         0      7065         1         0
      7068         1         0      7071         1         0      7074         1         0
      7077         1         0      7080         1         0      7083         1         0
      7086         1         0      7089         1         0      7092         1         0
      7095         1         0      7098         1         0      7102         2         0
      7118         2         0      7129         1         0      7137         1         0
      7146         1         0      7149         1         0      7152         1         0
      7155         1         0      7158         1         0      7161         1         0
      7164         1         0      7166         1         0      7168         1         0
      7171         1         0      7174         1         0      7177         1         0
      7180         1         0      7183         1         0      7186         1         0
      7189         1         0      7193         1         0      7196         1         0
      7199         1         0      7202         1         0      7205         1         0
      7208         1         0      7211         1         0      7214         1         0
      7217         1         0      7220         1         0      7223         1         0
      7226         1         0      7229         1         0      7232         1         0
      7236         2         0      7252         2         0      7263         1         0
      7271         1         0      7280         1         0      7283         1         0
      7286         1         0      7289         1         0      7292         1         0
      7295         1         0      7298         1         0      7300         1         0
      7302         1         0      7305         1         0      7308         1         0
      7311         1         0      7314         1         0      7317         1         0
      7320         1         0      7323         1         0      7327         1         0
      7330         1         0      7333         1         0      7336         1         0
      7339         1         0      7342         1         0      7345         1         0
      7348         1         0      7351         1         0      7354         1         0
      7357         1         0      7360         1         0      7363         1         0
      7366         1         0      7370         2         0      7386         2         0
      7397         1         0      7405         1         0      7414         1         0
      7417         1         0      7420         1         0      7423         1         0
      7426         1         0      7429         1         0      7432         1         0
      7434         1         0      7436         1         0      7439         1         0
      7442         1         0      7445         1         0      7448         1         0
      7451         1         0      7454         1         0      7457         1         0
      7461         1         0      7464         1         0      7467         1         0
      7470         1         0      7473         1         0      7476         1         0
      7479         1         0      7482         1         0      7485         1         0
      7488         1         0      7491         1         0      7494         1         0
      7497         1         0      7500         1         0      7504         2         0
      7520         2         0      7531         1         0      7539         1         0
      7548         1         0      7551         1         0      7554         1         0
      7557         1         0      7560         1         0      7563         1         0
      7566         1         0      7568         1         0      7570         1         0
      7573         1         0      7576         1         0      7579         1         0
      7582         1         0      7585         1         0      7588         1         0
      7591         1         0      7595         1         0      7598         1         0
      7601         1         0      7604         1         0      7607         1         0
      7610         1         0      7613         1         0      7616         1         0
      7619         1         0      7622         1         0      7625         1         0
      7628         1         0      7631         1         0      7634         1         0
      7638         2         0      7654         2         0      7665         1         0
      7673         1         0      7682         1         0      7685         1         0
      7688         1         0      7691         1         0      7694         1         0
      7697         1         0      7700         1         0      7702         1         0
      7704         1         0      7707         1         0      7710         1         0
      7713         1         0      7716         1         0      7719         1         0
      7722         1         0      7725         1         0      7729         1         0
      7732         1         0      7735         1         0      7738         1         0
      7741         1         0      7744         1         0      7747         1         0
      7750         1         0      7753         1         0      7756         1         0
      7759         1         0      7762         1         0      7765         1         0
      7768         1         0      7772         2         0      7788         2         0
      7799         1         0      7807         1         0      7816         1         0
      7819         1         0      7822         1         0      7825         1         0
      7828         1         0      7831         1         0      7834         1         0
      7836         1         0      7838         1         0      7841         1         0
      7844         1         0      7847         1         0      7850         1         0
      7853         1         0      7856         1         0      7859         1         0
      7863         1         0      7866         1         0      7869         1         0
      7872         1         0      7875         1         0      7878         1         0
      7881         1         0      7884         1         0      7887         1         0
      7890         1         0      7893         1         0      7896         1         0
      7899         1         0      7902         1         0      7906         2         0
      7922         2         0      7933         1         0      7941         1         0
      7950         1         0      7953         1         0      7956         1         0
      7959         1         0      7962         1         0      7965         1         0
      7968         1         0      7970         1         0      7972         1         0
      7975         1         0      7978         1         0      7981         1         0
      7984         1         0      7987         1         0      7990         1         0
      7993         1         0      7997         1         0      8000         1         0
      8003         1         0      8006         1         0      8009         1         0
      8012         1         0      8015         1         0      8018         1         0
      8021         1         0      8024         1         0      8027         1         0
      8030         1         0      8033         1         0      8036         1         0
      8040         2         0      8056         2         0      8067         1         0
      8075         1         0      8084         1         0      8087         1         0
      8090         1         0      8093         1         0      8096         1         0
      8099         1         0      8102         1         0      8104         1         0
      8106         1         0      8109         1         0      8112         1         0
      8115         1         0      8118         1         0      8121         1         0
      8124         1         0      8127         1         0      8131         1         0
      8134         1         0      8137         1         0      8140         1         0
      8143         1         0      8146         1         0      8149         1         0
      8152         1         0      8155         1         0      8158         1         0
      8161         1         0      8164         1         0      8167         1         0
      8170         1         0      8174         2         0      8190         2         0
      8201         1         0      8209         1         0      8218         1         0
      8221         1         0      8224         1         0      8227         1         0
      8230         1         0      8233         1         0      8236         1         0
      8238         1         0      8240         1         0      8243         1         0
      8246         1         0      8249         1         0      8252         1         0
      8255         1         0      8258         1         0      8261         1         0
      8265         1         0      8268         1         0      8271         1         0
      8274         1         0      8277         1         0      8280         1         0
      8283         1         0      8286         1         0      8289         1         0
      8292         1         0      8295         1         0      8298         1         0
      8301         1         0      8304         1         0      8308         2         0
      8324         2         0      8335         1         0      8343         1         0
      8352         1         0      8355         1         0      8358         1         0
      8361         1         0      8364         1         0      8367         1         0
      8370         1         0      8372         1         0      8374         1         0
      8377         1         0      8380         1         0      8383         1         0
      8386         1         0      8389         1         0      8392         1         0
      8395         1         0      8399         1         0      8402         1         0
      8405         1         0      8408         1         0      8411         1         0
      8414         1         0      8417         1         0      8420         1         0
      8423         1         0      8426         1         0      8429         1         0
      8432         1         0      8435         1         0      8438         1         0
      8442         2         0      8458         2         0      8469         1         0
      8477         1         0      8486         1         0      8489         1         0
      8492         1         0      8495         1         0      8498         1         0
      8501         1         0      8504         1         0      8506         1         0
      8508         1         0      8511         1         0      8514         1         0
      8517         1         0      8520         1         0      8523         1         0
      8526         1         0      8529         1         0      8533         1         0
      8536         1         0      8539         1         0      8542         1         0
      8545         1         0      8548         1         0      8551         1         0
      8554         1         0      8557         1         0      8560         1         0
      8563         1         0      8566         1         0      8569         1         0
      8572         1         0      8576         1         0      8579         1         0
      8582         1         0      8585         1         0      8588         1         0
      8591         1         0      8594         1         0      8597         1         0
      8600         1         0      8603         1         0      8606         1         0
      8609         1         0      8612         1         0      8615         1         0
      8618         1         0      8621         1         0      8624         1         0
      8627         1         0      8630         1         0      8633         1         0
      8636         1         0      8639         1         0      8642         1         0
      8645         1         0      8648         1         0      8651         1         0
      8654         1         0      8657         1         0      8660         1         0
      8663         1         0      8666         1         0      8669         1         0
      8672         1         0      8675         1         0      8678         1         0
      8681         1         0      8684         1         0      8687         1         0
      8690         1         0      8693         1         0      8696         1         0
      8699         1         0      8702         1         0      8705         1         0
      8708         1         0      8711         1         0      8714         1         0
      8717         1         0      8720         1         0      8723         1         0
      8726         1         0      8729         1         0      8732         1         0
      8735         1         0      8738         1         0      8741         1         0
      8744         1         0      8747         1         0      8750         1         0
      8753         1         0      8756         1         0      8759         1         0
      8762         1         0      8765         1         0      8768         1         0
      8771         1         0      8774         1         0      8777         1         0
      8780         1         0      8783         1         0      8786         1         0
      8789         1         0      8792         1         0      8795         1         0
      8798         1         0      8801         1         0      8804         1         0
      8807         1         0      8810         1         0      8813         1         0
      8816         1         0      8819         1         0      8822         1         0
      8825         1         0      8828         1         0      8831         1         0
      8834         1         0      8837         1         0      8840         1         0
      8843         1         0      8846         1         0      8849         1         0
      8852         1         0      8855         1         0      8858         1         0
      8861         1         0      8864         1         0      8867         1         0
      8870         1         0      8873         1         0      8876         1         0
      8879         1         0      8882         1         0      8885         1         0
      8888         1         0      8891         1         0      8894         1         0
      8897         1         0      8900         1         0      8903         1         0
      8906         1         0      8909         1         0      8912         1         0
      8915         1         0      8918         1         0      8921         1         0
      8924         1         0      8927         1         0      8930         1         0
      8933         1         0      8936         1         0      8939         1         0
      8942         1         0      8945         1         0      8948         1         0
      8951         1         0      8954         1         0      8957         1         0
      8960         1         0      8963         1         0      8966         1         0
      8969         1         0      8972         1         0      8975         1         0
      8978         1         0      8981         1         0      8984         1         0
      8987         1         0      8990         1         0      8993         1         0
      8996         1         0      8999         1         0      9002         1         0
      9005         1         0      9008         1         0      9011         1         0
      9014         1         0      9017         1         0      9020         1         0
      9023         1         0      9026         1         0      9029         1         0
      9032         1         0      9035         1         0      9038         1         0
      9041         1         0      9044         1         0      9047         1         0
      9050         1         0      9053         1         0      9056         1         0
      9059         1         0      9062         1         0      9065         1         0
      9068         1         0      9071         1         0      9074         1         0
      9077         1         0      9080         1         0      9083         1         0
      9086         1         0      9089         1         0      9092         1         0
      9095         1         0      9098         1         0      9101         1         0
      9104         1         0      9107         1         0      9110         1         0
      9113         1         0      9116         1         0      9119         1         0
      9122         1         0      9125         1         0      9128         1         0
      9131         1         0      9134         1         0      9137         1         0
      9140         1         0      9143         1         0      9146         1         0
      9149         1         0      9152         1         0      9155         1         0
      9158         1         0      9161         1         0      9164         1         0
      9167         1         0      9170         1         0      9173         1         0
      9176         1         0      9179         1         0      9182         1         0
      9185         1         0      9188         1         0      9191         1         0
      9194         1         0      9197         1         0      9200         1         0
      9203         1         0      9206         1         0      9209         1         0
      9212         1         0      9215         1         0      9218         1         0
      9221         1         0      9224         1         0      9227         1         0
      9230         1         0      9233         1         0      9236         1         0
      9239         1         0      9242         1         0      9245         1         0
      9248         1         0      9251         1         0      9254         1         0
      9257         1         0      9260         1         0      9263         1         0
      9266         1         0      9269         1         0      9272         1         0
      9275         1         0      9278         1         0      9281         1         0
      9284         1         0      9287         1         0      9290         1         0
      9293         1         0      9296         1         0      9299         1         0
      9302         1         0      9305         1         0      9308         1         0
      9311         1         0      9314         1         0      9317         1         0
      9320         1         0      9323         1         0      9326         1         0
      9329         1         0      9332         1         0      9335         1         0
      9338         1         0      9341         1         0      9344         1         0
      9347         1         0      9350         1         0      9353         1         0
      9356         1         0      9359         1         0      9362         1         0
      9365         1         0      9368         1         0      9371         1         0
      9374         1         0      9377         1         0      9380         1         0
      9383         1         0      9386         1         0      9389         1         0
      9392         1         0      9395         1         0      9398         1         0
      9401         1         0      9404         1         0      9407         1         0
      9410         1         0      9413         1         0      9416         1         0
      9419         1         0      9422         1         0      9425         1         0
      9428         1         0      9431         1         0      9434         1         0
      9437         1         0      9440         1         0      9443         1         0
      9446         1         0      9449         1         0      9452         1         0
      9455         1         0      9458         1         0      9461         1         0
      9464         1         0      9467         1         0      9470         1         0
      9473         1         0      9476         1         0      9479         1         0
      9482         1         0      9485         1         0      9488         1         0
      9491         1         0      9494         1         0      9497         1         0
      9500         1         0      9503         1         0      9506         1         0
      9509         1         0      9512         1         0      9515         1         0
      9518         1         0      9521         1         0      9524         1         0
      9527         1         0      9530         1         0      9533         1         0
      9536         1         0      9539         1         0      9542         1         0
      9545         1         0      9548         1         0      9551         1         0
      9554         1         0      9557         1         0      9560         1         0
      9563         1         0      9566         1         0      9569         1         0
      9572         1         0      9575         1         0      9578         1         0
      9581         1         0      9584         1         0      9587         1         0
      9590         1         0      9593         1         0      9596         1         0
      9599         1         0      9602         1         0      9605         1         0
      9608         1         0      9611         1         0      9614         1         0
      9617         1         0      9620         1         0      9623         1         0
      9626         1         0      9629         1         0      9632         1         0
      9635         1         0      9638         1         0      9641         1         0
      9644         1         0      9647         1         0      9650         1         0
      9653         1         0      9656         1         0      9659         1         0
      9662         1         0      9665         1         0      9668         1         0
      9671         1         0      9674         1         0      9677         1         0
      9680         1         0      9683         1         0      9686         1         0
      9689         1         0      9692         1         0      9695         1         0
      9698         1         0      9701         1         0      9704         1         0
      9707         1         0      9710         1         0      9713         1         0
      9716         1         0      9719         1         0      9722         1         0
      9725         1         0      9728         1         0      9731         1         0
      9734         1         0      9737         1         0      9740         1         0
      9743         1         0      9746         1         0      9749         1         0
      9752         1         0      9755         1         0      9758         1         0
      9761         1         0      9764         1         0      9767         1         0
      9770         1         0      9773         1         0      9776         1         0
      9779         1         0      9782         1         0      9785         1         0
      9788         1         0      9791         1         0      9794         1         0
      9797         1         0      9800         1         0      9803         1         0
      9806         1         0      9809         1         0      9812         1         0
      9815         1         0      9818         1         0      9821         1         0
      9824         1         0      9827         1         0      9830         1         0
      9833         1         0      9836         1         0      9839         1         0
      9842         1         0      9845         1         0      9848         1         0
      9851         1         0      9854         1         0      9857         1         0
      9860         1         0      9863         1         0      9866         1         0
      9869         1         0      9872         1         0      9875         1         0
      9878         1         0      9881         1         0      9884         1         0
      9887         1         0      9890         1         0      9893         1         0
      9896         1         0      9899         1         0      9902         1         0
      9905         1         0      9908         1         0      9911         1         0
      9914         1         0      9917         1         0      9920         1         0
      9923         1         0      9926         1         0      9929         1         0
      9932         1         0      9935         1         0      9938         1         0
      9941         1         0      9944         1         0      9947         1         0
      9950         1         0      9953         1         0      9956         1         0
      9959         1         0      9962         1         0      9965         1         0
      9968         1         0      9971         1         0      9974         1         0
      9977         1         0      9980         1         0      9983         1         0
      9986         1         0      9989         1         0      9992         1         0
      9995         1         0      9998         1         0     10001         1         0
     10004         1         0     10007         1         0     10010         1         0
     10013         1         0     10016         1         0     10019         1         0
     10022         1         0     10025         1         0     10028         1         0
     10031         1         0     10034         1         0     10037         1         0
     10040         1         0     10043         1         0     10046         1         0
     10049         1         0     10052         1         0     10055         1         0
     10058         1         0     10061         1         0     10064         1         0
     10067         1         0     10070         1         0     10073         1         0
     10076         1         0     10079         1         0     10082         1         0
     10085         1         0     10088         1         0     10091         1         0
     10094         1         0     10097         1         0     10100         1         0
     10103         1         0     10106         1         0     10109         1         0
     10112         1         0     10115         1         0     10118         1         0
     10121         1         0     10124         1         0     10127         1         0
     10130         1         0     10133         1         0     10136         1         0
     10139         1         0     10142         1         0     10145         1         0
     10148         1         0     10151         1         0     10154         1         0
     10157         1         0     10160         1         0     10163         1         0
     10166         1         0     10169         1         0     10172         1         0
     10175         1         0     10178         1         0     10181         1         0
     10184         1         0     10187         1         0     10190         1         0
     10193         1         0     10196         1         0     10199         1         0
     10202         1         0     10205         1         0     10208         1         0
     10211         1         0     10214         1         0     10217         1         0
     10220         1         0     10223         1         0     10226         1         0
     10229         1         0     10232         1         0     10235         1         0
     10238         1         0     10241         1         0     10244         1         0
     10247         1         0     10250         1         0     10253         1         0
     10256         1         0     10259         1         0     10262         1         0
     10265         1         0     10268         1         0     10271         1         0
     10274         1         0     10277         1         0     10280         1         0
     10283         1         0     10286         1         0     10289         1         0
     10292         1         0     10295         1         0     10298         1         0
     10301         1         0     10304         1         0     10307         1         0
     10310         1         0     10313         1         0     10316         1         0
     10319         1         0     10322         1         0     10325         1         0
     10328         1         0     10331         1         0     10334         1         0
     10337         1         0     10340         1         0     10343         1         0
     10346         1         0     10349         1         0     10352         1         0
     10355         1         0     10358         1         0     10361         1         0
     10364         1         0     10367         1         0     10370         1         0
     10373         1         0     10376         1         0     10379         1         0
     10382         1         0     10385         1         0     10388         1         0
     10391         1         0     10394         1         0     10397         1         0
     10400         1         0     10403         1         0     10406         1         0
     10409         1         0     10412         1         0     10415         1         0
     10418         1         0     10421         1         0     10424         1         0
     10427         1         0     10430         1         0     10433         1         0
     10436         1         0     10439         1         0     10442         1         0
     10445         1         0     10448         1         0     10451         1         0
     10454         1         0     10457         1         0     10460         1         0
     10463         1         0     10466         1         0     10469         1         0
     10472         1         0     10475         1         0     10478         1         0
     10481         1         0     10484         1         0     10487         1         0
     10490         1         0     10493         1         0     10496         1         0
     10499         1         0     10502         1         0     10505         1         0
     10508         1         0     10511         1         0     10514         1         0
     10517         1         0     10520         1         0     10523         1         0
     10526         1         0     10529         1         0     10532         1         0
     10535         1         0     10538         1         0     10541         1         0
     10544         1         0     10547         1         0     10550         1         0
     10553         1         0     10556         1         0     10559         1         0
     10562         1         0     10565         1         0     10568         1         0
     10571         1         0     10574         1         0     10577         1         0
     10580         1         0     10583         1         0     10586         1         0
     10589         1         0     10592         1         0     10595         1         0
     10598         1         0     10601         1         0     10604         1         0
     10607         1         0     10610         1         0     10613         1         0
     10616         1         0     10619         1         0     10622         1         0
     10625         1         0     10628         1         0     10631         1         0
     10634         1         0     10637         1         0     10640         1         0
     10643         1         0     10646         1         0     10649         1         0
     10652         1         0     10655         1         0     10658         1         0
     10661         1         0     10664         1         0     10667         1         0
     10670         1         0     10673         1         0     10676         1         0
     10679         1         0     10682         1         0     10685         1         0
     10688         1         0     10691         1         0     10694         1         0
     10697         1         0     10700         1         0     10703         1         0
     10706         1         0     10709         1         0     10712         1         0
     10715         1         0     10718         1         0     10721         1         0
     10724         1         0     10727         1         0     10730         1         0
     10733         1         0     10736         1         0     10739         1         0
     10742         1         0     10745         1         0     10748         1         0
     10751         1         0     10754         1         0     10757         1         0
     10760         1         0     10763         1         0     10766         1         0
     10769         1         0     10772         1         0     10775         1         0
     10778         1         0     10781         1         0     10784         1         0
     10787         1         0     10790         1         0     10793         1         0
     10796         1         0     10799         1         0     10802         1         0
     10805         1         0     10808         1         0     10811         1         0
     10814         1         0     10817         1         0     10820         1         0
     10823         1         0     10826         1         0     10829         1         0
     10832         1         0     10835         1         0     10838         1         0
     10841         1         0     10844         1         0     10847         1         0
     10850         1         0     10853         1         0     10856         1         0
     10859         1         0     10862         1         0     10865         1         0
     10868         1         0     10871         1         0     10874         1         0
     10877         1         0     10880         1         0     10883         1         0
     10886         1         0     10889         1         0     10892         1         0
     10895         1         0     10898         1         0     10901         1         0
     10904         1         0     10907         1         0     10910         1         0
     10913         1         0     10916         1         0     10919         1         0
     10922         1         0     10925         1         0     10928         1         0
     10931         1         0     10934         1         0     10937         1         0
     10940         1         0     10943         1         0     10946         1         0
     10949         1         0     10952         1         0     10955         1         0
     10958         1         0     10961         1         0     10964         1         0
     10967         1         0     10970         1         0     10973         1         0
     10976         1         0     10979         1         0     10982         1         0
     10985         1         0     10988         1         0     10991         1         0
     10994         1         0     10997         1         0     11000         1         0
     11003         1         0     11006         1         0     11009         1         0
     11012         1         0     11015         1         0     11018         1         0
     11021         1         0     11024         1         0     11027         1         0
     11030         1         0     11033         1         0     11036         1         0
     11039         1         0     11042         1         0     11045         1         0
     11048         1         0     11051         1         0     11054         1         0
     11057         1         0     11060         1         0     11063         1         0
     11066         1         0     11069         1         0     11072         1         0
     11075         1         0     11078         1         0     11081         1         0
     11084         1         0     11087         1         0     11090         1         0
     11093         1         0     11096         1         0     11099         1         0
     11102         1         0     11105         1         0     11108         1         0
     11111         1         0     11114         1         0     11117         1         0
     11120         1         0     11123         1         0     11126         1         0
     11129         1         0     11132         1         0     11135         1         0
     11138         1         0     11141         1         0     11144         1         0
     11147         1         0     11150         1         0     11153         1         0
     11156         1         0     11159         1         0     11162         1         0
     11165         1         0     11168         1         0     11171         1         0
     11174         1         0     11177         1         0     11180         1         0
     11183         1         0     11186         1         0     11189         1         0
     11192         1         0     11195         1         0     11198         1         0
     11201         1         0     11204         1         0     11207         1         0
     11210         1         0     11213         1         0     11216         1         0
     11219         1         0     11222         1         0     11225         1         0
     11228         1         0     11231         1         0     11234         1         0
     11237         1         0     11240         1         0     11243         1         0
     11246         1         0     11249         1         0     11252         1         0
     11255         1         0     11258         1         0     11261         1         0
     11264         1         0     11267         1         0     11270         1         0
     11273         1         0     11276         1         0     11279         1         0
     11282         1         0     11285         1         0     11288         1         0
     11291         1         0     11294         1         0     11297         1         0
     11300         1         0     11303         1         0     11306         1         0
     11309         1         0     11312         1         0     11315         1         0
     11318         1         0     11321         1         0     11324         1         0
     11327         1         0     11330         1         0     11333         1         0
     11336         1         0     11339         1         0     11342         1         0
     11345         1         0     11348         1         0     11351         1         0
     11354         1         0     11357         1         0     11360         1         0
     11363         1         0     11366         1         0     11369         1         0
     11372         1         0     11375         1         0     11378         1         0
     11381         1         0     11384         1         0     11387         1         0
     11390         1         0     11393         1         0     11396         1         0
     11399         1         0     11402         1         0     11405         1         0
     11408         1         0     11411         1         0     11414         1         0
     11417         1         0     11420         1         0     11423         1         0
     11426         1         0     11429         1         0     11432         1         0
     11435         1         0     11438         1         0     11441         1         0
     11444         1         0     11447         1         0     11450         1         0
     11453         1         0     11456         1         0     11459         1         0
     11462         1         0     11465         1         0     11468         1         0
     11471         1         0     11474         1         0     11477         1         0
     11480         1         0     11483         1         0     11486         1         0
     11489         1         0     11492         1         0     11495         1         0
     11498         1         0     11501         1         0     11504         1         0
     11507         1         0     11510         1         0     11513         1         0
     11516         1         0     11519         1         0     11522         1         0
     11525         1         0     11528         1         0     11531         1         0
     11534         1         0     11537         1         0     11540         1         0
     11543         1         0     11546         1         0     11549         1         0
     11552         1         0     11555         1         0     11558         1         0
     11561         1         0     11564         1         0     11567         1         0
     11570         1         0     11573         1         0     11576         1         0
     11579         1         0     11582         1         0     11585         1         0
     11588         1         0     11591         1         0     11594         1         0
     11597         1         0     11600         1         0     11603         1         0
     11606         1         0     11609         1         0     11612         1         0
     11615         1         0     11618         1         0     11621         1         0
     11624         1         0     11627         1         0     11630         1         0
     11633         1         0     11636         1         0     11639         1         0
     11642         1         0     11645         1         0     11648         1         0
     11651         1         0     11654         1         0     11657         1         0
     11660         1         0     11663         1         0     11666         1         0
     11669         1         0     11672         1         0     11675         1         0
     11678         1         0     11681         1         0     11684         1         0
     11687         1         0     11690         1         0     11693         1         0
     11696         1         0     11699         1         0     11702         1         0
     11705         1         0     11708         1         0     11711         1         0
     11714         1         0     11717         1         0     11720         1         0
     11723         1         0     11726         1         0     11729         1         0
     11732         1         0     11735         1         0     11738         1         0
     11741         1         0     11744         1         0     11747         1         0
     11750         1         0     11753         1         0     11756         1         0
     11759         1         0     11762         1         0     11765         1         0
     11768         1         0     11771         1         0     11774         1         0
     11777         1         0     11780         1         0     11783         1         0
     11786         1         0     11789         1         0     11792         1         0
     11795         1         0     11798         1         0     11801         1         0
     11804         1         0     11807         1         0     11810         1         0
     11813         1         0     11816         1         0     11819         1         0
     11822         1         0     11825         1         0     11828         1         0
     11831         1         0     11834         1         0     11837         1         0
     11840         1         0     11843         1         0     11846         1         0
     11849         1         0     11852         1         0     11855         1         0
     11858         1         0     11861         1         0     11864         1         0
     11867         1         0     11870         1         0     11873         1         0
     11876         1         0     11879         1         0     11882         1         0
     11885         1         0     11888         1         0     11891         1         0
     11894         1         0     11897         1         0     11900         1         0
     11903         1         0     11906         1         0     11909         1         0
     11912         1         0     11915         1         0     11918         1         0
     11921         1         0     11924         1         0     11927         1         0
     11930         1         0     11933         1         0     11936         1         0
     11939         1         0     11942         1         0     11945         1         0
     11948         1         0     11951         1         0     11954         1         0
     11957         1         0     11960         1         0     11963         1         0
     11966         1         0     11969         1         0     11972         1         0
     11975         1         0     11978         1         0     11981         1         0
     11984         1         0     11987         1         0     11990         1         0
     11993         1         0     11996         1         0     11999         1         0
     12002         1         0     12005         1         0     12008         1         0
     12011         1         0     12014         1         0     12017         1         0
     12020         1         0     12023         1         0     12026         1         0
     12029         1         0     12032         1         0     12035         1         0
     12038         1         0     12041         1         0     12044         1         0
     12047         1         0     12050         1         0     12053         1         0
     12056         1         0     12059         1         0     12062         1         0
     12065         1         0     12068         1         0     12071         1         0
     12074         1         0     12077         1         0     12080         1         0
     12083         1         0     12086         1         0     12089         1         0
     12092         1         0     12095         1         0     12098         1         0
     12101         1         0     12104         1         0     12107         1         0
     12110         1         0     12113         1         0     12116         1         0
     12119         1         0     12122         1         0     12125         1         0
     12128         1         0     12131         1         0     12134         1         0
     12137         1         0     12140         1         0     12143         1         0
     12146         1         0     12149         1         0     12152         1         0
     12155         1         0     12158         1         0     12161         1         0
     12164         1         0     12167         1         0     12170         1         0
     12173         1         0     12176         1         0     12179         1         0
     12182         1         0     12185         1         0     12188         1         0
     12191         1         0     12194         1         0     12197         1         0
     12200         1         0     12203         1         0     12206         1         0
     12209         1         0     12212         1         0     12215         1         0
     12218         1         0     12221         1         0     12224         1         0
     12227         1         0     12230         1         0     12233         1         0
     12236         1         0     12239         1         0     12242         1         0
     12245         1         0     12248         1         0     12251         1         0
     12254         1         0     12257         1         0     12260         1         0
     12263         1         0     12266         1         0     12269         1         0
     12272         1         0     12275         1         0     12278         1         0
     12281         1         0     12284         1         0     12287         1         0
     12290         1         0     12293         1         0     12296         1         0
     12299         1         0     12302         1         0     12305         1         0
     12308         1         0     12311         1         0     12314         1         0
     12317         1         0     12320         1         0     12323         1         0
     12326         1         0     12329         1         0     12332         1         0
     12335         1         0     12338         1         0     12341         1         0
     12344         1         0     12347         1         0     12350         1         0
     12353         1         0     12356         1         0     12359         1         0
     12362         1         0     12365         1         0     12368         1         0
     12371         1         0     12374         1         0     12377         1         0
     12380         1         0     12383         1         0     12386         1         0
     12389         1         0     12392         1         0     12395         1         0
     12398         1         0     12401         1         0     12404         1         0
     12407         1         0     12410         1         0     12413         1         0
     12416         1         0     12419         1         0     12422         1         0
     12425         1         0     12428         1         0     12431         1         0
     12434         1         0     12437         1         0     12440         1         0
     12443         1         0     12446         1         0     12449         1         0
     12452         1         0     12455         1         0     12458         1         0
     12461         1         0     12464         1         0     12467         1         0
     12470         1         0     12473         1         0     12476         1         0
     12479         1         0     12482         1         0     12485         1         0
     12488         1         0     12491         1         0     12494         1         0
     12497         1         0     12500         1         0     12503         1         0
     12506         1         0     12509         1         0     12512         1         0
     12515         1         0     12518         1         0     12521         1         0
     12524         1         0     12527         1         0     12530         1         0
     12533         1         0     12536         1         0     12539         1         0
     12542         1         0     12545         1         0     12548         1         0
     12551         1         0     12554         1         0     12557         1         0
     12560         1         0     12563         1         0     12566         1         0
     12569         1         0     12572         1         0     12575         1         0
     12578         1         0     12581         1         0     12584         1         0
     12587         1         0     12590         1         0     12593         1         0
     12596         1         0     12599         1         0     12602         1         0
     12605         1         0     12608         1         0     12611         1         0
     12614         1         0     12617         1         0     12620         1         0
     12623         1         0     12626         1         0     12629         1         0
     12632         1         0     12635         1         0     12638         1         0
     12641         1         0     12644         1         0     12647         1         0
     12650         1         0     12653         1         0     12656         1         0
     12659         1         0     12662         1         0     12665         1         0
     12668         1         0     12671         1         0     12674         1         0
     12677         1         0     12680         1         0     12683         1         0
     12686         1         0     12689         1         0     12692         1         0
     12695         1         0     12698         1         0     12701         1         0
     12704         1         0     12707         1         0     12710         1         0
     12713         1         0     12716         1         0     12719         1         0
     12722         1         0     12725         1         0     12728         1         0
     12731         1         0     12734         1         0     12737         1         0
     12740         1         0     12743         1         0     12746         1         0
     12749         1         0     12752         1         0     12755         1         0
     12758         1         0     12761         1         0     12764         1         0
     12767         1         0     12770         1         0     12773         1         0
     12776         1         0     12779         1         0     12782         1         0
     12785         1         0     12788         1         0     12791         1         0
     12794         1         0     12797         1         0     12800         1         0
     12803         1         0     12806         1         0     12809         1         0
     12812         1         0     12815         1         0     12818         1         0
     12821         1         0     12824         1         0     12827         1         0
     12830         1         0     12833         1         0     12836         1         0
     12839         1         0     12842         1         0     12845         1         0
     12848         1         0     12851         1         0     12854         1         0
     12857         1         0     12860         1         0     12863         1         0
     12866         1         0     12869         1         0     12872         1         0
     12875         1         0     12878         1         0     12881         1         0
     12884         1         0     12887         1         0     12890         1         0
     12893         1         0     12896         1         0     12899         1         0
     12902         1         0     12905         1         0     12908         1         0
     12911         1         0     12914         1         0     12917         1         0
     12920         1         0     12923         1         0     12926         1         0
     12929         1         0     12932         1         0     12935         1         0
     12938         1         0     12941         1         0     12944         1         0
     12947         1         0     12950         1         0     12953         1         0
     12956         1         0     12959         1         0     12962         1         0
     12965         1         0     12968         1         0     12971         1         0
     12974         1         0     12977         1         0     12980         1         0
     12983         1         0     12986         1         0     12989         1         0
     12992         1         0     12995         1         0     12998         1         0
     13001         1         0     13004         1         0     13007         1         0
     13010         1         0     13013         1         0     13016         1         0
     13019         1         0     13022         1         0     13025         1         0
     13028         1         0     13031         1         0     13034         1         0
     13037         1         0     13040         1         0     13043         1         0
     13046         1         0     13049         1         0     13052         1         0
     13055         1         0     13058         1         0     13061         1         0
     13064         1         0     13067         1         0     13070         1         0
     13073         1         0     13076         1         0     13079         1         0
     13082         1         0     13085         1         0     13088         1         0
     13091         1         0     13094         1         0     13097         1         0
     13100         1         0     13103         1         0     13106         1         0
     13109         1         0     13112         1         0     13115         1         0
     13118         1         0     13121         1         0     13124         1         0
     13127         1         0     13130         1         0     13133         1         0
     13136         1         0     13139         1         0     13142         1         0
     13145         1         0     13148         1         0     13151         1         0
     13154         1         0     13157         1         0     13160         1         0
     13163         1         0     13166         1         0     13169         1         0
     13172         1         0     13175         1         0     13178         1         0
     13181         1         0     13184         1         0     13187         1         0
     13190         1         0     13193         1         0     13196         1         0
     13199         1         0     13202         1         0     13205         1         0
     13208         1         0     13211         1         0     13214         1         0
     13217         1         0     13220         1         0     13223         1         0
     13226         1         0     13229         1         0     13232         1         0
     13235         1         0     13238         1         0     13241         1         0
     13244         1         0     13247         1         0     13250         1         0
     13253         1         0     13256         1         0     13259         1         0
     13262         1         0     13265         1         0     13268         1         0
     13271         1         0     13274         1         0     13277         1         0
     13280         1         0     13283         1         0     13286         1         0
     13289         1         0     13292         1         0     13295         1         0
     13298         1         0     13301         1         0     13304         1         0
     13307         1         0     13310         1         0     13313         1         0
     13316         1         0     13319         1         0     13322         1         0
     13325         1         0     13328         1         0     13331         1         0
     13334         1         0     13337         1         0     13340         1         0
     13343         1         0     13346         1         0     13349         1         0
     13352         1         0     13355         1         0     13358         1         0
     13361         1         0     13364         1         0     13367         1         0
     13370         1         0     13373         1         0     13376         1         0
     13379         1         0     13382         1         0     13385         1         0
     13388         1         0     13391         1         0     13394         1         0
     13397         1         0     13400         1         0     13403         1         0
     13406         1         0     13409         1         0     13412         1         0
     13415         1         0     13418         1         0     13421         1         0
     13424         1         0     13427         1         0     13430         1         0
     13433         1         0     13436         1         0     13439         1         0
     13442         1         0     13445         1         0     13448         1         0
     13451         1         0     13454         1         0     13457         1         0
     13460         1         0     13463         1         0     13466         1         0
     13469         1         0     13472         1         0     13475         1         0
     13478         1         0     13481         1         0     13484         1         0
     13487         1         0     13490         1         0     13493         1         0
     13496         1         0     13499         1         0     13502         1         0
     13505         1         0     13508         1         0     13511         1         0
     13514         1         0     13517         1         0     13520         1         0
     13523         1         0     13526         1         0     13529         1         0
     13532         1         0     13535         1         0     13538         1         0
     13541         1         0     13544         1         0     13547         1         0
     13550         1         0     13553         1         0     13556         1         0
     13559         1         0     13562         1         0     13565         1         0
     13568         1         0     13571         1         0     13574         1         0
     13577         1         0     13580         1         0     13583         1         0
     13586         1         0     13589         1         0     13592         1         0
     13595         1         0     13598         1         0     13601         1         0
     13604         1         0     13607         1         0     13610         1         0
     13613         1         0     13616         1         0     13619         1         0
     13622         1         0     13625         1         0     13628         1         0
     13631         1         0     13634         1         0     13637         1         0
     13640         1         0     13643         1         0     13646         1         0
     13649         1         0     13652         1         0     13655         1         0
     13658         1         0     13661         1         0     13664         1         0
     13667         1         0     13670         1         0     13673         1         0
     13676         1         0     13679         1         0     13682         1         0
     13685         1         0     13688         1         0     13691         1         0
     13694         1         0     13697         1         0     13700         1         0
     13703         1         0     13706         1         0     13709         1         0
     13712         1         0     13715         1         0     13718         1         0
     13721         1         0     13724         1         0     13727         1         0
     13730         1         0     13733         1         0     13736         1         0
     13739         1         0     13742         1         0     13745         1         0
     13748         1         0     13751         1         0     13754         1         0
     13757         1         0     13760         1         0     13763         1         0
     13766         1         0     13769         1         0     13772         1         0
     13775         1         0     13778         1         0     13781         1         0
     13784         1         0     13787         1         0     13790         1         0
     13793         1         0     13796         1         0     13799         1         0
     13802         1         0     13805         1         0     13808         1         0
     13811         1         0     13814         1         0     13817         1         0
     13820         1         0     13823         1         0     13826         1         0
     13829         1         0     13832         1         0     13835         1         0
     13838         1         0     13841         1         0     13844         1         0
     13847         1         0     13850         1         0     13853         1         0
     13856         1         0     13859         1         0     13862         1         0
     13865         1         0     13868         1         0     13871         1         0
     13874         1         0     13877         1         0     13880         1         0
     13883         1         0     13886         1         0     13889         1         0
     13892         1         0     13895         1         0     13898         1         0
     13901         1         0     13904         1         0     13907         1         0
     13910         1         0     13913         1         0     13916         1         0
     13919         1         0     13922         1         0     13925         1         0
     13928         1         0     13931         1         0     13934         1         0
     13937         1         0     13940         1         0     13943         1         0
     13946         1         0     13949         1         0     13952         1         0
     13955         1         0     13958         1         0     13961         1         0
     13964         1         0     13967         1         0     13970         1         0
     13973         1         0     13976         1         0     13979         1         0
     13982         1         0     13985         1         0     13988         1         0
     13991         1         0     13994         1         0     13997         1         0
     14000         1         0     14003         1         0     14006         1         0
     14009         1         0     14012         1         0     14015         1         0
     14018         1         0     14021         1         0     14024         1         0
     14027         1         0     14030         1         0     14033         1         0
     14036         1         0     14039         1         0     14042         1         0
     14045         1         0     14048         1         0     14051         1         0
     14054         1         0     14057         1         0     14060         1         0
     14063         1         0     14066         1         0     14069         1         0
     14072         1         0     14075         1         0     14078         1         0
     14081         1         0     14084         1         0     14087         1         0
     14090         1         0     14093         1         0     14096         1         0
     14099         1         0     14102         1         0     14105         1         0
     14108         1         0     14111         1         0     14114         1         0
     14117         1         0     14120         1         0     14123         1         0
     14126         1         0     14129         1         0     14132         1         0
     14135         1         0     14138         1         0     14141         1         0
     14144         1         0     14147         1         0     14150         1         0
     14153         1         0     14156         1         0     14159         1         0
     14162         1         0     14165         1         0     14168         1         0
     14171         1         0     14174         1         0     14177         1         0
     14180         1         0     14183         1         0     14186         1         0
     14189         1         0     14192         1         0     14195         1         0
     14198         1         0     14201         1         0     14204         1         0
     14207         1         0     14210         1         0     14213         1         0
     14216         1         0     14219         1         0     14222         1         0
     14225         1         0     14228         1         0     14231         1         0
     14234         1         0     14237         1         0     14240         1         0
     14243         1         0     14246         1         0     14249         1         0
     14252         1         0     14255         1         0     14258         1         0
     14261         1         0     14264         1         0     14267         1         0
     14270         1         0     14273         1         0     14276         1         0
     14279         1         0     14282         1         0     14285         1         0
     14288         1         0     14291         1         0     14294         1         0
     14297         1         0     14300         1         0     14303         1         0
     14306         1         0     14309         1         0     14312         1         0
     14315         1         0     14318         1         0     14321         1         0
     14324         1         0     14327         1         0     14330         1         0
     14333         1         0     14336         1         0     14339         1         0
     14342         1         0     14345         1         0     14348         1         0
     14351         1         0     14354         1         0     14357         1         0
     14360         1         0     14363         1         0     14366         1         0
     14369         1         0     14372         1         0     14375         1         0
     14378         1         0     14381         1         0     14384         1         0
     14387         1         0     14390         1         0     14393         1         0
     14396         1         0     14399         1         0     14402         1         0
     14405         1         0     14408         1         0     14411         1         0
     14414         1         0     14417         1         0     14420         1         0
     14423         1         0     14426         1         0     14429         1         0
     14432         1         0     14435         1         0     14438         1         0
     14441         1         0     14444         1         0     14447         1         0
     14450         1         0     14453         1         0     14456         1         0
     14459         1         0     14462         1         0     14465         1         0
     14468         1         0     14471         1         0     14474         1         0
     14477         1         0     14480         1         0     14483         1         0
     14486         1         0     14489         1         0     14492         1         0
     14495         1         0     14498         1         0     14501         1         0
     14504         1         0     14507         1         0     14510         1         0
     14513         1         0     14516         1         0     14519         1         0
     14522         1         0     14525         1         0     14528         1         0
     14531         1         0     14534         1         0     14537         1         0
     14540         1         0     14543         1         0     14546         1         0
     14549         1         0     14552         1         0     14555         1         0
     14558         1         0     14561         1         0     14564         1         0
     14567         1         0     14570         1         0     14573         1         0
     14576         1         0     14579         1         0     14582         1         0
     14585         1         0     14588         1         0     14591         1         0
     14594         1         0     14597         1         0     14600         1         0
     14603         1         0     14606         1         0     14609         1         0
     14612         1         0     14615         1         0     14618         1         0
     14621         1         0     14624         1         0     14627         1         0
     14630         1         0     14633         1         0     14636         1         0
     14639         1         0     14642         1         0     14645         1         0
     14648         1         0     14651         1         0     14654         1         0
     14657         1         0     14660         1         0     14663         1         0
     14666         1         0     14669         1         0     14672         1         0
     14675         1         0     14678         1         0     14681         1         0
     14684         1         0     14687         1         0     14690         1         0
     14693         1         0     14696         1         0     14699         1         0
     14702         1         0     14705         1         0     14708         1         0
     14711         1         0     14714         1         0     14717         1         0
     14720         1         0     14723         1         0     14726         1         0
     14729         1         0     14732         1         0     14735         1         0
     14738         1         0     14741         1         0     14744         1         0
     14747         1         0     14750         1         0     14753         1         0
     14756         1         0     14759         1         0     14762         1         0
     14765         1         0     14768         1         0     14771         1         0
     14774         1         0     14777         1         0     14780         1         0
     14783         1         0     14786         1         0     14789         1         0
     14792         1         0     14795         1         0     14798         1         0
     14801         1         0     14804         1         0     14807         1         0
     14810         1         0     14813         1         0     14816         1         0
     14819         1         0     14822         1         0     14825         1         0
     14828         1         0     14831         1         0     14834         1         0
     14837         1         0     14840         1         0     14843         1         0
     14846         1         0     14849         1         0     14852         1         0
     14855         1         0     14858         1         0     14861         1         0
     14864         1         0     14867         1         0     14870         1         0
     14873         1         0     14876         1         0     14879         1         0
     14882         1         0     14885         1         0     14888         1         0
     14891         1         0     14894         1         0     14897         1         0
     14900         1         0     14903         1         0     14906         1         0
     14909         1         0     14912         1         0     14915         1         0
     14918         1         0     14921         1         0     14924         1         0
     14927         1         0     14930         1         0     14933         1         0
     14936         1         0     14939         1         0     14942         1         0
     14945         1         0     14948         1         0     14951         1         0
     14954         1         0     14957         1         0     14960         1         0
     14963         1         0     14966         1         0     14969         1         0
     14972         1         0     14975         1         0     14978         1         0
     14981         1         0     14984         1         0     14987         1         0
     14990         1         0     14993         1         0     14996         1         0
     14999         1         0     15002         1         0     15005         1         0
     15008         1         0     15011         1         0     15014         1         0
     15017         1         0     15020         1         0     15023         1         0
     15026         1         0     15029         1         0     15032         1         0
     15035         1         0     15038         1         0     15041         1         0
     15044         1         0     15047         1         0     15050         1         0
     15053         1         0     15056         1         0     15059         1         0
     15062         1         0     15065         1         0     15068         1         0
     15071         1         0     15074         1         0     15077         1         0
     15080         1         0     15083         1         0     15086         1         0
     15089         1         0     15092         1         0     15095         1         0
     15098         1         0     15101         1         0     15104         1         0
     15107         1         0     15110         1         0     15113         1         0
     15116         1         0     15119         1         0     15122         1         0
     15125         1         0     15128         1         0     15131         1         0
     15134         1         0     15137         1         0     15140         1         0
     15143         1         0     15146         1         0     15149         1         0
     15152         1         0     15155         1         0     15158         1         0
     15161         1         0     15164         1         0     15167         1         0
     15170         1         0     15173         1         0     15176         1         0
     15179         1         0     15182         1         0     15185         1         0
     15188         1         0     15191         1         0     15194         1         0
     15197         1         0     15200         1         0     15203         1         0
     15206         1         0     15209         1         0     15212         1         0
     15215         1         0     15218         1         0     15221         1         0
     15224         1         0     15227         1         0     15230         1         0
     15233         1         0     15236         1         0     15239         1         0
     15242         1         0     15245         1         0     15248         1         0
     15251         1         0     15254         1         0     15257         1         0
     15260         1         0     15263         1         0     15266         1         0
     15269         1         0     15272         1         0     15275         1         0
     15278         1         0     15281         1         0     15284         1         0
     15287         1         0     15290         1         0     15293         1         0
     15296         1         0     15299         1         0     15302         1         0
     15305         1         0     15308         1         0     15311         1         0
     15314         1         0     15317         1         0     15320         1         0
     15323         1         0     15326         1         0     15329         1         0
     15332         1         0     15335         1         0     15338         1         0
     15341         1         0     15344         1         0     15347         1         0
     15350         1         0     15353         1         0     15356         1         0
     15359         1         0     15362         1         0     15365         1         0
     15368         1         0     15371         1         0     15374         1         0
     15377         1         0     15380         1         0     15383         1         0
     15386         1         0     15389         1         0     15392         1         0
     15395         1         0     15398         1         0     15401         1         0
     15404         1         0     15407         1         0     15410         1         0
     15413         1         0     15416         1         0     15419         1         0
     15422         1         0     15425         1         0     15428         1         0
     15431         1         0     15434         1         0     15437         1         0
     15440         1         0     15443         1         0     15446         1         0
     15449         1         0     15452         1         0     15455         1         0
     15458         1         0     15461         1         0     15464         1         0
     15467         1         0     15470         1         0     15473         1         0
     15476         1         0     15479         1         0     15482         1         0
     15485         1         0     15488         1         0     15491         1         0
     15494         1         0     15497         1         0     15500         1         0
     15503         1         0     15506         1         0     15509         1         0
     15512         1         0     15515         1         0     15518         1         0
     15521         1         0     15524         1         0     15527         1         0
     15530         1         0     15533         1         0     15536         1         0
     15539         1         0     15542         1         0     15545         1         0
     15548         1         0     15551         1         0     15554         1         0
     15557         1         0     15560         1         0     15563         1         0
     15566         1         0     15569         1         0     15572         1         0
     15575         1         0     15578         1         0     15581         1         0
     15584         1         0     15587         1         0     15590         1         0
     15593         1         0     15596         1         0     15599         1         0
     15602         1         0     15605         1         0     15608         1         0
     15611         1         0     15614         1         0     15617         1         0
     15620         1         0     15623         1         0     15626         1         0
     15629         1         0     15632         1         0     15635         1         0
     15638         1         0     15641         1         0     15644         1         0
     15647         1         0     15650         1         0     15653         1         0
     15656         1         0     15659         1         0     15662         1         0
     15665         1         0     15668         1         0     15671         1         0
     15674         1         0     15677         1         0     15680         1         0
     15683         1         0     15686         1         0     15689         1         0
     15692         1         0     15695         1         0     15698         1         0
     15701         1         0     15704         1         0     15707         1         0
     15710         1         0     15713         1         0     15716         1         0
     15719         1         0     15722         1         0     15725         1         0
     15728         1         0     15731         1         0     15734         1         0
     15737         1         0     15740         1         0     15743         1         0
     15746         1         0     15749         1         0     15752         1         0
     15755         1         0     15758         1         0     15761         1         0
     15764         1         0     15767         1         0     15770         1         0
     15773         1         0     15776         1         0     15779         1         0
     15782         1         0     15785         1         0     15788         1         0
     15791         1         0     15794         1         0     15797         1         0
     15800         1         0     15803         1         0     15806         1         0
     15809         1         0     15812         1         0     15815         1         0
     15818         1         0     15821         1         0     15824         1         0
     15827         1         0     15830         1         0     15833         1         0
     15836         1         0     15839         1         0     15842         1         0
     15845         1         0     15848         1         0     15851         1         0
     15854         1         0     15857         1         0     15860         1         0
     15863         1         0     15866         1         0     15869         1         0
     15872         1         0     15875         1         0     15878         1         0
     15881         1         0     15884         1         0     15887         1         0
     15890         1         0     15893         1         0     15896         1         0
     15899         1         0     15902         1         0     15905         1         0
     15908         1         0     15911         1         0     15914         1         0
     15917         1         0     15920         1         0     15923         1         0
     15926         1         0     15929         1         0     15932         1         0
     15935         1         0     15938         1         0     15941         1         0
     15944         1         0     15947         1         0     15950         1         0
     15953         1         0     15956         1         0     15959         1         0
     15962         1         0     15965         1         0     15968         1         0
     15971         1         0     15974         1         0     15977         1         0
     15980         1         0     15983         1         0     15986         1         0
     15989         1         0     15992         1         0     15995         1         0
     15998         1         0     16001         1         0     16004         1         0
     16007         1         0     16010         1         0     16013         1         0
     16016         1         0     16019         1         0     16022         1         0
     16025         1         0     16028         1         0     16031         1         0
     16034         1         0     16037         1         0     16040         1         0
     16043         1         0     16046         1         0     16049         1         0
     16052         1         0     16055         1         0     16058         1         0
     16061         1         0     16064         1         0     16067         1         0
     16070         1         0     16073         1         0     16076         1         0
     16079         1         0     16082         1         0     16085         1         0
     16088         1         0     16091         1         0     16094         1         0
     16097         1         0     16100         1         0     16103         1         0
     16106         1         0     16109         1         0     16112         1         0
     16115         1         0     16118         1         0     16121         1         0
     16124         1         0     16127         1         0     16130         1         0
     16133         1         0     16136         1         0     16139         1         0
     16142         1         0     16145         1         0     16148         1         0
     16151         1         0     16154         1         0     16157         1         0
     16160         1         0     16163         1         0     16166         1         0
     16169         1         0     16172         1         0     16175         1         0
     16178         1         0     16181         1         0     16184         1         0
     16187         1         0     16190         1         0     16193         1         0
     16196         1         0     16199         1         0     16202         1         0
     16205         1         0     16208         1         0     16211         1         0
     16214         1         0     16217         1         0     16220         1         0
     16223         1         0     16226         1         0     16229         1         0
     16232         1         0     16235         1         0     16238         1         0
     16241         1         0     16244         1         0     16247         1         0
     16250         1         0     16253         1         0     16256         1         0
     16259         1         0     16262         1         0     16265         1         0
     16268         1         0     16271         1         0     16274         1         0
     16277         1         0     16280         1         0     16283         1         0
     16286         1         0     16289         1         0     16292         1         0
     16295         1         0     16298         1         0     16301         1         0
     16304         1         0     16307         1         0     16310         1         0
     16313         1         0     16316         1         0     16319         1         0
     16322         1         0     16325         1         0     16328         1         0
     16331         1         0     16334         1         0     16337         1         0
     16340         1         0     16343         1         0     16346         1         0
     16349         1         0     16352         1         0     16355         1         0
     16358         1         0     16361         1         0     16364         1         0
     16367         1         0     16370         1         0     16373         1         0
     16376         1         0     16379         1         0     16382         1         0
     16385         1         0     16388         1         0     16391         1         0
     16394         1         0     16397         1         0     16400         1         0
     16403         1         0     16406         1         0     16409         1         0
     16412         1         0     16415         1         0     16418         1         0
     16421         1         0     16424         1         0     16427         1         0
     16430         1         0     16433         1         0     16436         1         0
     16439         1         0     16442         1         0     16445         1         0
     16448         1         0     16451         1         0     16454         1         0
     16457         1         0     16460         1         0     16463         1         0
     16466         1         0     16469         1         0     16472         1         0
     16475         1         0     16478         1         0     16481         1         0
     16484         1         0     16487         1         0     16490         1         0
     16493         1         0     16496         1         0     16499         1         0
     16502         1         0     16505         1         0     16508         1         0
     16511         1         0     16514         1         0     16517         1         0
     16520         1         0     16523         1         0     16526         1         0
     16529         1         0     16532         1         0     16535         1         0
     16538         1         0     16541         1         0     16544         1         0
     16547         1         0     16550         1         0     16553         1         0
     16556         1         0     16559         1         0     16562         1         0
     16565         1         0     16568         1         0     16571         1         0
     16574         1         0     16577         1         0     16580         1         0
     16583         1         0     16586         1         0     16589         1         0
     16592         1         0     16595         1         0     16598         1         0
     16601         1         0     16604         1         0     16607         1         0
     16610         1         0     16613         1         0     16616         1         0
     16619         1         0     16622         1         0     16625         1         0
     16628         1         0     16631         1         0     16634         1         0
     16637         1         0     16640         1         0     16643         1         0
     16646         1         0     16649         1         0     16652         1         0
     16655         1         0     16658         1         0     16661         1         0
     16664         1         0     16667         1         0     16670         1         0
     16673         1         0     16676         1         0     16679         1         0
     16682         1         0     16685         1         0     16688         1         0
     16691         1         0     16694         1         0     16697         1         0
     16700         1         0     16703         1         0     16706         1         0
     16709         1         0     16712         1         0     16715         1         0
     16718         1         0     16721         1         0     16724         1         0
     16727         1         0     16730         1         0     16733         1         0
     16736         1         0     16739         1         0     16742         1         0
     16745         1         0     16748         1         0     16751         1         0
     16754         1         0     16757         1         0     16760         1         0
     16763         1         0     16766         1         0     16769         1         0
     16772         1         0     16775         1         0     16778         1         0
     16781         1         0     16784         1         0     16787         1         0
     16790         1         0     16793         1         0     16796         1         0
     16799         1         0     16802         1         0     16805         1         0
     16808         1         0     16811         1         0     16814         1         0
     16817         1         0     16820         1         0     16823         1         0
     16826         1         0     16829         1         0     16832         1         0
     16835         1         0     16838         1         0     16841         1         0
     16844         1         0     16847         1         0     16850         1         0
     16853         1         0     16856         1         0     16859         1         0
     16862         1         0     16865         1         0     16868         1         0
     16871         1         0     16874         1         0     16877         1         0
     16880         1         0     16883         1         0     16886         1         0
     16889         1         0     16892         1         0     16895         1         0
     16898         1         0     16901         1         0     16904         1         0
     16907         1         0     16910         1         0     16913         1         0
     16916         1         0     16919         1         0     16922         1         0
     16925         1         0     16928         1         0     16931         1         0
     16934         1         0     16937         1         0     16940         1         0
     16943         1         0     16946         1         0     16949         1         0
     16952         1         0     16955         1         0     16958         1         0
     16961         1         0     16964         1         0     16967         1         0
     16970         1         0     16973         1         0     16976         1         0
     16979         1         0     16982         1         0     16985         1         0
     16988         1         0     16991         1         0     16994         1         0
     16997         1         0     17000         1         0     17003         1         0
     17006         1         0     17009         1         0     17012         1         0
     17015         1         0     17018         1         0     17021         1         0
     17024         1         0     17027         1         0     17030         1         0
     17033         1         0     17036         1         0     17039         1         0
     17042         1         0     17045         1         0     17048         1         0
     17051         1         0     17054         1         0     17057         1         0
     17060         1         0     17063         1         0     17066         1         0
     17069         1         0     17072         1         0     17075         1         0
     17078         1         0     17081         1         0     17084         1         0
     17087         1         0     17090         1         0     17093         1         0
     17096         1         0     17099         1         0     17102         1         0
     17105         1         0     17108         1         0     17111         1         0
     17114         1         0     17117         1         0     17120         1         0
     17123         1         0     17126         1         0     17129         1         0
     17132         1         0     17135         1         0     17138         1         0
     17141         1         0     17144         1         0     17147         1         0
     17150         1         0     17153         1         0     17156         1         0
     17159         1         0     17162         1         0     17165         1         0
     17168         1         0     17171         1         0     17174         1         0
     17177         1         0     17180         1         0     17183         1         0
     17186         1         0     17189         1         0     17192         1         0
     17195         1         0     17198         1         0     17201         1         0
     17204         1         0     17207         1         0     17210         1         0
     17213         1         0     17216         1         0     17219         1         0
     17222         1         0     17225         1         0     17228         1         0
     17231         1         0     17234         1         0     17237         1         0
     17240         1         0     17243         1         0     17246         1         0
     17249         1         0     17252         1         0     17255         1         0
     17258         1         0     17261         1         0     17264         1         0
     17267         1         0     17270         1         0     17273         1         0
     17276         1         0     17279         1         0     17282         1         0
     17285         1         0     17288         1         0     17291         1         0
     17294         1         0     17297         1         0     17300         1         0
     17303         1         0     17306         1         0     17309         1         0
     17312         1         0     17315         1         0     17318         1         0
     17321         1         0     17324         1         0     17327         1         0
     17330         1         0     17333         1         0     17336         1         0
     17339         1         0     17342         1         0     17345         1         0
     17348         1         0     17351         1         0     17354         1         0
     17357         1         0     17360         1         0     17363         1         0
     17366         1         0     17369         1         0     17372         1         0
     17375         1         0     17378         1         0     17381         1         0
     17384         1         0     17387         1         0     17390         1         0
     17393         1         0     17396         1         0     17399         1         0
     17402         1         0     17405         1         0     17408         1         0
     17411         1         0     17414         1         0     17417         1         0
     17420         1         0     17423         1         0     17426         1         0
     17429         1         0     17432         1         0     17435         1         0
     17438         1         0     17441         1         0     17444         1         0
     17447         1         0     17450         1         0     17453         1         0
     17456         1         0     17459         1         0     17462         1         0
     17465         1         0     17468         1         0     17471         1         0
     17474         1         0     17477         1         0     17480         1         0
     17483         1         0     17486         1         0     17489         1         0
     17492         1         0     17495         1         0     17498         1         0
     17501         1         0     17504         1         0     17507         1         0
     17510         1         0     17513         1         0     17516         1         0
     17519         1         0     17522         1         0     17525         1         0
     17528         1         0     17531         1         0     17534         1         0
     17537         1         0     17540         1         0     17543         1         0
     17546         1         0     17549         1         0     17552         1         0
     17555         1         0     17558         1         0     17561         1         0
     17564         1         0     17567         1         0     17570         1         0
     17573         1         0     17576         1         0     17579         1         0
     17582         1         0     17585         1         0     17588         1         0
     17591         1         0     17594         1         0     17597         1         0
     17600         1         0     17603         1         0     17606         1         0
     17609         1         0     17612         1         0     17615         1         0
     17618         1         0     17621         1         0     17624         1         0
     17627         1         0     17630         1         0     17633         1         0
     17636         1         0     17639         1         0     17642         1         0
     17645         1         0     17648         1         0     17651         1         0
     17654         1         0     17657         1         0     17660         1         0
     17663         1         0     17666         1         0     17669         1         0
     17672         1         0     17675         1         0     17678         1         0
     17681         1         0     17684         1         0     17687         1         0
     17690         1         0     17693         1         0     17696         1         0
     17699         1         0     17702         1         0     17705         1         0
     17708         1         0     17711         1         0     17714         1         0
     17717         1         0     17720         1         0     17723         1         0
     17726         1         0     17729         1         0     17732         1         0
     17735         1         0     17738         1         0     17741         1         0
     17744         1         0     17747         1         0     17750         1         0
     17753         1         0     17756         1         0     17759         1         0
     17762         1         0     17765         1         0     17768         1         0
     17771         1         0     17774         1         0     17777         1         0
     17780         1         0     17783         1         0     17786         1         0
     17789         1         0     17792         1         0     17795         1         0
     17798         1         0     17801         1         0     17804         1         0
     17807         1         0     17810         1         0     17813         1         0
     17816         1         0     17819         1         0     17822         1         0
     17825         1         0     17828         1         0     17831         1         0
     17834         1         0     17837         1         0     17840         1         0
     17843         1         0     17846         1         0     17849         1         0
     17852         1         0     17855         1         0     17858         1         0
     17861         1         0     17864         1         0     17867         1         0
     17870         1         0     17873         1         0     17876         1         0
     17879         1         0     17882         1         0     17885         1         0
     17888         1         0     17891         1         0     17894         1         0
     17897         1         0     17900         1         0     17903         1         0
     17906         1         0     17909         1         0     17912         1         0
     17915         1         0     17918         1         0     17921         1         0
     17924         1         0     17927         1         0     17930         1         0
     17933         1         0     17936         1         0     17939         1         0
     17942         1         0     17945         1         0     17948         1         0
     17951         1         0     17954         1         0     17957         1         0
     17960         1         0     17963         1         0     17966         1         0
     17969         1         0     17972         1         0     17975         1         0
     17978         1         0     17981         1         0     17984         1         0
     17987         1         0     17990         1         0     17993         1         0
     17996         1         0     17999         1         0     18002         1         0
     18005         1         0     18008         1         0     18011         1         0
     18014         1         0     18017         1         0     18020         1         0
     18023         1         0     18026         1         0     18029         1         0
     18032         1         0     18035         1         0     18038         1         0
     18041         1         0     18044         1         0     18047         1         0
     18050         1         0     18053         1         0     18056         1         0
     18059         1         0     18062         1         0     18065         1         0
     18068         1         0     18071         1         0     18074         1         0
     18077         1         0     18080         1         0     18083         1         0
     18086         1         0     18089         1         0     18092         1         0
     18095         1         0     18098         1         0     18101         1         0
     18104         1         0     18107         1         0     18110         1         0
     18113         1         0     18116         1         0     18119         1         0
     18122         1         0     18125         1         0     18128         1         0
     18131         1         0     18134         1         0     18137         1         0
     18140         1         0     18143         1         0     18146         1         0
     18149         1         0     18152         1         0     18155         1         0
     18158         1         0     18161         1         0     18164         1         0
     18167         1         0     18170         1         0     18173         1         0
     18176         1         0     18179         1         0     18182         1         0
     18185         1         0     18188         1         0     18191         1         0
     18194         1         0     18197         1         0     18200         1         0
     18203         1         0     18206         1         0     18209         1         0
     18212         1         0     18215         1         0     18218         1         0
     18221         1         0     18224         1         0     18227         1         0
     18230         1         0     18233         1         0     18236         1         0
     18239         1         0     18242         1         0     18245         1         0
     18248         1         0     18251         1         0     18254         1         0
     18257         1         0     18260         1         0     18263         1         0
     18266         1         0     18269         1         0     18272         1         0
     18275         1         0     18278         1         0     18281         1         0
     18284         1         0     18287         1         0     18290         1         0
     18293         1         0     18296         1         0     18299         1         0
     18302         1         0     18305         1         0     18308         1         0
     18311         1         0     18314         1         0     18317         1         0
     18320         1         0     18323         1         0     18326         1         0
     18329         1         0     18332         1         0     18335         1         0
     18338         1         0     18341         1         0     18344         1         0
     18347         1         0     18350         1         0     18353         1         0
     18356         1         0     18359         1         0     18362         1         0
     18365         1         0     18368         1         0     18371         1         0
     18374         1         0     18377         1         0     18380         1         0
     18383         1         0     18386         1         0     18389         1         0
     18392         1         0     18395         1         0     18398         1         0
     18401         1         0     18404         1         0     18407         1         0
     18410         1         0     18413         1         0     18416         1         0
     18419         1         0     18422         1         0     18425         1         0
     18428         1         0     18431         1         0     18434         1         0
     18437         1         0     18440         1         0     18443         1         0
     18446         1         0     18449         1         0     18452         1         0
     18455         1         0     18458         1         0     18461         1         0
     18464         1         0     18467         1         0     18470         1         0
     18473         1         0     18476         1         0     18479         1         0
     18482         1         0     18485         1         0     18488         1         0
     18491         1         0     18494         1         0     18497         1         0
     18500         1         0     18503         1         0     18506         1         0
     18509         1         0     18512         1         0     18515         1         0
     18518         1         0     18521         1         0     18524         1         0
     18527         1         0     18530         1         0     18533         1         0
     18536         1         0     18539         1         0     18542         1         0
     18545         1         0     18548         1         0     18551         1         0
     18554         1         0     18557         1         0     18560         1         0
     18563         1         0     18566         1         0     18569         1         0
     18572         1         0     18575         1         0     18578         1         0
     18581         1         0     18584         1         0     18587         1         0
     18590         1         0     18593         1         0     18596         1         0
     18599         1         0     18602         1         0     18605         1         0
     18608         1         0     18611         1         0     18614         1         0
     18617         1         0     18620         1         0     18623         1         0
     18626         1         0     18629         1         0     18632         1         0
     18635         1         0     18638         1         0     18641         1         0
     18644         1         0     18647         1         0     18650         1         0
     18653         1         0     18656         1         0     18659         1         0
     18662         1         0     18665         1         0     18668         1         0
     18671         1         0     18674         1         0     18677         1         0
     18680         1         0     18683         1         0     18686         1         0
     18689         1         0     18692         1         0     18695         1         0
     18698         1         0     18701         1         0     18704         1         0
     18707         1         0     18710         1         0     18713         1         0
     18716         1         0     18719         1         0     18722         1         0
     18725         1         0     18728         1         0     18731         1         0
     18734         1         0     18737         1         0     18740         1         0
     18743         1         0     18746         1         0     18749         1         0
     18752         1         0     18755         1         0     18758         1         0
     18761         1         0     18764         1         0     18767         1         0
     18770         1         0     18773         1         0     18776         1         0
     18779         1         0     18782         1         0     18785         1         0
     18788         1         0     18791         1         0     18794         1         0
     18797         1         0     18800         1         0     18803         1         0
     18806         1         0     18809         1         0     18812         1         0
     18815         1         0     18818         1         0     18821         1         0
     18824         1         0     18827         1         0     18830         1         0
     18833         1         0     18836         1         0     18839         1         0
     18842         1         0     18845         1         0     18848         1         0
     18851         1         0     18854         1         0     18857         1         0
     18860         1         0     18863         1         0     18866         1         0
     18869         1         0     18872         1         0     18875         1         0
     18878         1         0     18881         1         0     18884         1         0
     18887         1         0     18890         1         0     18893         1         0
     18896         1         0     18899         1         0     18902         1         0
     18905         1         0     18908         1         0     18911         1         0
     18914         1         0     18917         1         0     18920         1         0
     18923         1         0     18926         1         0     18929         1         0
     18932         1         0     18935         1         0     18938         1         0
     18941         1         0     18944         1         0     18947         1         0
     18950         1         0     18953         1         0     18956         1         0
     18959         1         0     18962         1         0     18965         1         0
     18968         1         0     18971         1         0     18974         1         0
     18977         1         0     18980         1         0     18983         1         0
     18986         1         0     18989         1         0     18992         1         0
     18995         1         0     18998         1         0     19001         1         0
     19004         1         0     19007         1         0     19010         1         0
     19013         1         0     19016         1         0     19019         1         0
     19022         1         0     19025         1         0     19028         1         0
     19031         1         0     19034         1         0     19037         1         0
     19040         1         0     19043         1         0     19046         1         0
     19049         1         0     19052         1         0     19055         1         0
     19058         1         0     19061         1         0     19064         1         0
     19067         1         0     19070         1         0     19073         1         0
     19076         1         0     19079         1         0     19082         1         0
     19085         1         0     19088         1         0     19091         1         0
     19094         1         0     19097         1         0     19100         1         0
     19103         1         0     19106         1         0     19109         1         0
     19112         1         0     19115         1         0     19118         1         0
     19121         1         0     19124         1         0     19127         1         0
     19130         1         0     19133         1         0     19136         1         0
     19139         1         0     19142         1         0     19145         1         0
     19148         1         0     19151         1         0     19154         1         0
     19157         1         0     19160         1         0     19163         1         0
     19166         1         0     19169         1         0     19172         1         0
     19175         1         0     19178         1         0     19181         1         0
     19184         1         0     19187         1         0     19190         1         0
     19193         1         0     19196         1         0     19199         1         0
     19202         1         0     19205         1         0     19208         1         0
     19211         1         0     19214         1         0     19217         1         0
     19220         1         0     19223         1         0     19226         1         0
     19229         1         0     19232         1         0     19235         1         0
     19238         1         0     19241         1         0     19244         1         0
     19247         1         0     19250         1         0     19253         1         0
     19256         1         0     19259         1         0     19262         1         0
     19265         1         0     19268         1         0     19271         1         0
     19274         1         0     19277         1         0     19280         1         0
     19283         1         0     19286         1         0     19289         1         0
     19292         1         0     19295         1         0     19298         1         0
     19301         1         0     19304         1         0     19307         1         0
     19310         1         0     19313         1         0     19316         1         0
     19319         1         0     19322         1         0     19325         1         0
     19328         1         0     19331         1         0     19334         1         0
     19337         1         0     19340         1         0     19343         1         0
     19346         1         0     19349         1         0     19352         1         0
     19355         1         0     19358         1         0     19361         1         0
     19364         1         0     19367         1         0     19370         1         0
     19373         1         0     19376         1         0     19379         1         0
     19382         1         0     19385         1         0     19388         1         0
     19391         1         0     19394         1         0     19397         1         0
     19400         1         0     19403         1         0     19406         1         0
     19409         1         0     19412         1         0     19415         1         0
     19418         1         0     19421         1         0     19424         1         0
     19427         1         0     19430         1         0     19433         1         0
     19436         1         0     19439         1         0     19442         1         0
     19445         1         0     19448         1         0     19451         1         0
     19454         1         0     19457         1         0     19460         1         0
     19463         1         0     19466         1         0     19469         1         0
     19472         1         0     19475         1         0     19478         1         0
     19481         1         0     19484         1         0     19487         1         0
     19490         1         0     19493         1         0     19496         1         0
     19499         1         0     19502         1         0     19505         1         0
     19508         1         0     19511         1         0     19514         1         0
     19517         1         0     19520         1         0     19523         1         0
     19526         1         0     19529         1         0     19532         1         0
     19535         1         0     19538         1         0     19541         1         0
     19544         1         0     19547         1         0     19550         1         0
     19553         1         0     19556         1         0     19559         1         0
     19562         1         0     19565         1         0     19568         1         0
     19571         1         0     19574         1         0     19577         1         0
     19580         1         0     19583         1         0     19586         1         0
     19589         1         0     19592         1         0     19595         1         0
     19598         1         0     19601         1         0     19604         1         0
     19607         1         0     19610         1         0     19613         1         0
     19616         1         0     19619         1         0     19622         1         0
     19625         1         0     19628         1         0     19631         1         0
     19634         1         0     19637         1         0     19640         1         0
     19643         1         0     19646         1         0     19649         1         0
     19652         1         0     19655         1         0     19658         1         0
     19661         1         0     19664         1         0     19667         1         0
     19670         1         0     19673         1         0     19676         1         0
     19679         1         0     19682         1         0     19685         1         0
     19688         1         0     19691         1         0     19694         1         0
     19697         1         0     19700         1         0     19703         1         0
     19706         1         0     19709         1         0     19712         1         0
     19715         1         0     19718         1         0     19721         1         0
     19724         1         0     19727         1         0     19730         1         0
     19733         1         0     19736         1         0     19739         1         0
     19742         1         0     19745         1         0     19748         1         0
     19751         1         0     19754         1         0     19757         1         0
     19760         1         0     19763         1         0     19766         1         0
     19769         1         0     19772         1         0     19775         1         0
     19778         1         0     19781         1         0     19784         1         0
     19787         1         0     19790         1         0     19793         1         0
     19796         1         0     19799         1         0     19802         1         0
     19805         1         0     19808         1         0     19811         1         0
     19814         1         0     19817         1         0     19820         1         0
     19823         1         0     19826         1         0     19829         1         0
     19832         1         0     19835         1         0     19838         1         0
     19841         1         0     19844         1         0     19847         1         0
     19850         1         0     19853         1         0     19856         1         0
     19859         1         0     19862         1         0     19865         1         0
     19868         1         0     19871         1         0     19874         1         0
     19877         1         0     19880         1         0     19883         1         0
     19886         1         0     19889         1         0     19892         1         0
     19895         1         0     19898         1         0     19901         1         0
     19904         1         0     19907         1         0     19910         1         0
     19913         1         0     19916         1         0     19919         1         0
     19922         1         0     19925         1         0     19928         1         0
     19931         1         0     19934         1         0     19937         1         0
     19940         1         0     19943         1         0     19946         1         0
     19949         1         0     19952         1         0     19955         1         0
     19958         1         0     19961         1         0     19964         1         0
     19967         1         0     19970         1         0     19973         1         0
     19976         1         0     19979         1         0     19982         1         0
     19985         1         0     19988         1         0     19991         1         0
     19994         1         0     19997         1         0     20000         1         0
     20003         1         0     20006         1         0     20009         1         0
     20012         1         0     20015         1         0     20018         1         0
     20021         1         0     20024         1         0     20027         1         0
     20030         1         0     20033         1         0     20036         1         0
     20039         1         0     20042         1         0     20045         1         0
     20048         1         0     20051         1         0     20054         1         0
     20057         1         0     20060         1         0     20063         1         0
     20066         1         0     20069         1         0     20072         1         0
     20075         1         0     20078         1         0     20081         1         0
     20084         1         0     20087         1         0     20090         1         0
     20093         1         0     20096         1         0     20099         1         0
     20102         1         0     20105         1         0     20108         1         0
     20111         1         0     20114         1         0     20117         1         0
     20120         1         0     20123         1         0     20126         1         0
     20129         1         0     20132         1         0     20135         1         0
     20138         1         0     20141         1         0     20144         1         0
     20147         1         0     20150         1         0     20153         1         0
     20156         1         0     20159         1         0     20162         1         0
     20165         1         0     20168         1         0     20171         1         0
     20174         1         0     20177         1         0     20180         1         0
     20183         1         0     20186         1         0     20189         1         0
     20192         1         0     20195         1         0     20198         1         0
     20201         1         0     20204         1         0     20207         1         0
     20210         1         0     20213         1         0     20216         1         0
     20219         1         0     20222         1         0     20225         1         0
     20228         1         0     20231         1         0     20234         1         0
     20237         1         0     20240         1         0     20243         1         0
     20246         1         0     20249         1         0     20252         1         0
     20255         1         0     20258         1         0     20261         1         0
     20264         1         0     20267         1         0     20270         1         0
     20273         1         0     20276         1         0     20279         1         0
     20282         1         0     20285         1         0     20288         1         0
     20291         1         0     20294         1         0     20297         1         0
     20300         1         0     20303         1         0     20306         1         0
     20309         1         0     20312         1         0     20315         1         0
     20318         1         0     20321         1         0     20324         1         0
     20327         1         0     20330         1         0     20333         1         0
     20336         1         0     20339         1         0     20342         1         0
     20345         1         0     20348         1         0     20351         1         0
     20354         1         0     20357         1         0     20360         1         0
     20363         1         0     20366         1         0     20369         1         0
     20372         1         0     20375         1         0     20378         1         0
     20381         1         0     20384         1         0     20387         1         0
     20390         1         0     20393         1         0     20396         1         0
     20399         1         0     20402         1         0     20405         1         0
     20408         1         0     20411         1         0     20414         1         0
     20417         1         0     20420         1         0     20423         1         0
     20426         1         0     20429         1         0     20432         1         0
     20435         1         0     20438         1         0     20441         1         0
     20444         1         0     20447         1         0     20450         1         0
     20453         1         0     20456         1         0     20459         1         0
     20462         1         0     20465         1         0     20468         1         0
     20471         1         0     20474         1         0     20477         1         0
     20480         1         0     20483         1         0     20486         1         0
     20489         1         0     20492         1         0     20495         1         0
     20498         1         0     20501         1         0     20504         1         0
     20507         1         0     20510         1         0     20513         1         0
     20516         1         0     20519         1         0     20522         1         0
     20525         1         0     20528         1         0     20531         1         0
     20534         1         0     20537         1         0     20540         1         0
     20543         1         0     20546         1         0     20549         1         0
     20552         1         0     20555         1         0     20558         1         0
     20561         1         0     20564         1         0     20567         1         0
     20570         1         0     20573         1         0     20576         1         0
     20579         1         0     20582         1         0     20585         1         0
     20588         1         0     20591         1         0     20594         1         0
     20597         1         0     20600         1         0     20603         1         0
     20606         1         0     20609         1         0     20612         1         0
     20615         1         0     20618         1         0     20621         1         0
     20624         1         0     20627         1         0     20630         1         0
     20633         1         0     20636         1         0     20639         1         0
     20642         1         0     20645         1         0     20648         1         0
     20651         1         0     20654         1         0     20657         1         0
     20660         1         0     20663         1         0     20666         1         0
     20669         1         0     20672         1         0     20675         1         0
     20678         1         0     20681         1         0     20684         1         0
     20687         1         0     20690         1         0     20693         1         0
     20696         1         0     20699         1         0     20702         1         0
     20705         1         0     20708         1         0     20711         1         0
     20714         1         0     20717         1         0     20720         1         0
     20723         1         0     20726         1         0     20729         1         0
     20732         1         0     20735         1         0     20738         1         0
     20741         1         0     20744         1         0     20747         1         0
     20750         1         0     20753         1         0     20756         1         0
     20759         1         0     20762         1         0     20765         1         0
     20768         1         0     20771         1         0     20774         1         0
     20777         1         0     20780         1         0     20783         1         0
     20786         1         0     20789         1         0     20792         1         0
     20795         1         0     20798         1         0     20801         1         0
     20804         1         0     20807         1         0     20810         1         0
     20813         1         0     20816         1         0     20819         1         0
     20822         1         0     20825         1         0     20828         1         0
     20831         1         0     20834         1         0     20837         1         0
     20840         1         0     20843         1         0     20846         1         0
     20849         1         0     20852         1         0     20855         1         0
     20858         1         0     20861         1         0     20864         1         0
     20867         1         0     20870         1         0     20873         1         0
     20876         1         0     20879         1         0     20882         1         0
     20885         1         0     20888         1         0     20891         1         0
     20894         1         0     20897         1         0     20900         1         0
     20903         1         0     20906         1         0     20909         1         0
     20912         1         0     20915         1         0     20918         1         0
     20921         1         0     20924         1         0     20927         1         0
     20930         1         0     20933         1         0     20936         1         0
     20939         1         0     20942         1         0     20945         1         0
     20948         1         0     20951         1         0     20954         1         0
     20957         1         0     20960         1         0     20963         1         0
     20966         1         0     20969         1         0     20972         1         0
     20975         1         0     20978         1         0     20981         1         0
     20984         1         0     20987         1         0     20990         1         0
     20993         1         0     20996         1         0     20999         1         0
     21002         1         0     21005         1         0     21008         1         0
     21011         1         0     21014         1         0     21017         1         0
     21020         1         0     21023         1         0     21026         1         0
     21029         1         0     21032         1         0     21035         1         0
     21038         1         0     21041         1         0     21044         1         0
     21047         1         0     21050         1         0     21053         1         0
     21056         1         0     21059         1         0     21062         1         0
     21065         1         0     21068         1         0     21071         1         0
     21074         1         0     21077         1         0     21080         1         0
     21083         1         0     21086         1         0     21089         1         0
     21092         1         0     21095         1         0     21098         1         0
     21101         1         0     21104         1         0     21107         1         0
     21110         1         0     21113         1         0     21116         1         0
     21119         1         0     21122         1         0     21125         1         0
     21128         1         0     21131         1         0     21134         1         0
     21137         1         0     21140         1         0     21143         1         0
     21146         1         0     21149         1         0     21152         1         0
     21155         1         0     21158         1         0     21161         1         0
     21164         1         0     21167         1         0     21170         1         0
     21173         1         0     21176         1         0     21179         1         0
     21182         1         0     21185         1         0     21188         1         0
     21191         1         0     21194         1         0     21197         1         0
     21200         1         0     21203         1         0     21206         1         0
     21209         1         0     21212         1         0     21215         1         0
     21218         1         0     21221         1         0     21224         1         0
     21227         1         0     21230         1         0     21233         1         0
     21236         1         0     21239         1         0     21242         1         0
     21245         1         0     21248         1         0     21251         1         0
     21254         1         0     21257         1         0     21260         1         0
     21263         1         0     21266         1         0     21269         1         0
     21272         1         0     21275         1         0     21278         1         0
     21281         1         0     21284         1         0     21287         1         0
     21290         1         0     21293         1         0     21296         1         0
     21299         1         0     21302         1         0     21305         1         0
     21308         1         0     21311         1         0     21314         1         0
     21317         1         0     21320         1         0     21323         1         0
     21326         1         0     21329         1         0     21332         1         0
     21335         1         0     21338         1         0     21341         1         0
     21344         1         0     21347         1         0     21350         1         0
     21353         1         0     21356         1         0     21359         1         0
     21362         1         0     21365         1         0     21368         1         0
     21371         1         0     21374         1         0     21377         1         0
     21380         1         0     21383         1         0     21386         1         0
     21389         1         0     21392         1         0     21395         1         0
     21398         1         0     21401         1         0     21404         1         0
     21407         1         0     21410         1         0     21413         1         0
     21416         1         0     21419         1         0     21422         1         0
     21425         1         0     21428         1         0     21431         1         0
     21434         1         0     21437         1         0     21440         1         0
     21443         1         0     21446         1         0     21449         1         0
     21452         1         0     21455         1         0     21458         1         0
     21461         1         0     21464         1         0     21467         1         0
     21470         1         0     21473         1         0     21476         1         0
     21479         1         0     21482         1         0     21485         1         0
     21488         1         0     21491         1         0     21494         1         0
     21497         1         0     21500         1         0     21503         1         0
     21506         1         0     21509         1         0     21512         1         0
     21515         1         0     21518         1         0     21521         1         0
     21524         1         0     21527         1         0     21530         1         0
     21533         1         0     21536         1         0     21539         1         0
     21542         1         0     21545         1         0     21548         1         0
     21551         1         0     21554         1         0     21557         1         0
     21560         1         0     21563         1         0     21566         1         0
     21569         1         0     21572         1         0     21575         1         0
     21578         1         0     21581         1         0     21584         1         0
     21587         1         0     21590         1         0     21593         1         0
     21596         1         0     21599         1         0     21602         1         0
     21605         1         0     21608         1         0     21611         1         0
     21614         1         0     21617         1         0     21620         1         0
     21623         1         0     21626         1         0     21629         1         0
     21632         1         0     21635         1         0     21638         1         0
     21641         1         0     21644         1         0     21647         1         0
     21650         1         0     21653         1         0     21656         1         0
     21659         1         0     21662         1         0     21665         1         0
     21668         1         0     21671         1         0     21674         1         0
     21677         1         0     21680         1         0     21683         1         0
     21686         1         0     21689         1         0     21692         1         0
     21695         1         0     21698         1         0     21701         1         0
     21704         1         0     21707         1         0     21710         1         0
     21713         1         0     21716         1         0     21719         1         0
     21722         1         0     21725         1         0     21728         1         0
     21731         1         0     21734         1         0     21737         1         0
     21740         1         0     21743         1         0     21746         1         0
     21749         1         0     21752         1         0     21755         1         0
     21758         1         0     21761         1         0     21764         1         0
     21767         1         0     21770         1         0     21773         1         0
     21776         1         0     21779         1         0     21782         1         0
     21785         1         0     21788         1         0     21791         1         0
     21794         1         0     21797         1         0     21800         1         0
     21803         1         0     21806         1         0     21809         1         0
     21812         1         0     21815         1         0     21818         1         0
     21821         1         0     21824         1         0     21827         1         0
     21830         1         0     21833         1         0     21836         1         0
     21839         1         0     21842         1         0     21845         1         0
     21848         1         0     21851         1         0     21854         1         0
     21857         1         0     21860         1         0     21863         1         0
     21866         1         0     21869         1         0     21872         1         0
     21875         1         0     21878         1         0     21881         1         0
     21884         1         0     21887         1         0     21890         1         0
     21893         1         0     21896         1         0     21899         1         0
     21902         1         0     21905         1         0     21908         1         0
     21911         1         0     21914         1         0     21917         1         0
     21920         1         0     21923         1         0     21926         1         0
     21929         1         0     21932         1         0     21935         1         0
     21938         1         0     21941         1         0     21944         1         0
     21947         1         0     21950         1         0     21953         1         0
     21956         1         0     21959         1         0     21962         1         0
     21965         1         0     21968         1         0     21971         1         0
     21974         1         0     21977         1         0     21980         1         0
     21983         1         0     21986         1         0     21989         1         0
     21992         1         0     21995         1         0     21998         1         0
     22001         1         0     22004         1         0     22007         1         0
     22010         1         0     22013         1         0     22016         1         0
     22019         1         0     22022         1         0     22025         1         0
     22028         1         0     22031         1         0     22034         1         0
     22037         1         0     22040         1         0     22043         1         0
     22046         1         0     22049         1         0     22052         1         0
     22055         1         0     22058         1         0     22061         1         0
     22064         1         0     22067         1         0     22070         1         0
     22073         1         0     22076         1         0     22079         1         0
     22082         1         0     22085         1         0     22088         1         0
     22091         1         0     22094         1         0     22097         1         0
     22100         1         0     22103         1         0     22106         1         0
     22109         1         0     22112         1         0     22115         1         0
     22118         1         0     22121         1         0     22124         1         0
     22127         1         0     22130         1         0     22133         1         0
     22136         1         0     22139         1         0     22142         1         0
     22145         1         0     22148         1         0     22151         1         0
     22154         1         0     22157         1         0     22160         1         0
     22163         1         0     22166         1         0     22169         1         0
     22172         1         0     22175         1         0     22178         1         0
     22181         1         0     22184         1         0     22187         1         0
     22190         1         0     22193         1         0     22196         1         0
     22199         1         0     22202         1         0     22205         1         0
     22208         1         0     22211         1         0     22214         1         0
     22217         1         0     22220         1         0     22223         1         0
     22226         1         0     22229         1         0     22232         1         0
     22235         1         0     22238         1         0     22241         1         0
     22244         1         0     22247         1         0     22250         1         0
     22253         1         0     22256         1         0     22259         1         0
     22262         1         0     22265         1         0     22268         1         0
     22271         1         0     22274         1         0     22277         1         0
     22280         1         0     22283         1         0     22286         1         0
     22289         1         0     22292         1         0     22295         1         0
     22298         1         0     22301         1         0     22304         1         0
     22307         1         0     22310         1         0     22313         1         0
     22316         1         0     22319         1         0     22322         1         0
     22325         1         0     22328         1         0     22331         1         0
     22334         1         0     22337         1         0     22340         1         0
     22343         1         0     22346         1         0     22349         1         0
     22352         1         0     22355         1         0     22358         1         0
     22361         1         0     22364         1         0     22367         1         0
     22370         1         0     22373         1         0     22376         1         0
     22379         1         0     22382         1         0     22385         1         0
     22388         1         0     22391         1         0     22394         1         0
     22397         1         0     22400         1         0     22403         1         0
     22406         1         0     22409         1         0     22412         1         0
     22415         1         0     22418         1         0     22421         1         0
     22424         1         0     22427         1         0     22430         1         0
     22433         1         0     22436         1         0     22439         1         0
     22442         1         0     22445         1         0     22448         1         0
     22451         1         0     22454         1         0     22457         1         0
     22460         1         0     22463         1         0     22466         1         0
     22469         1         0     22472         1         0     22475         1         0
     22478         1         0     22481         1         0     22484         1         0
     22487         1         0     22490         1         0     22493         1         0
     22496         1         0     22499         1         0     22502         1         0
     22505         1         0     22508         1         0     22511         1         0
     22514         1         0     22517         1         0     22520         1         0
     22523         1         0     22526         1         0     22529         1         0
     22532         1         0     22535         1         0     22538         1         0
     22541         1         0     22544         1         0     22547         1         0
     22550         1         0     22553         1         0     22556         1         0
     22559         1         0     22562         1         0     22565         1         0
     22568         1         0     22571         1         0     22574         1         0
     22577         1         0     22580         1         0     22583         1         0
     22586         1         0     22589         1         0     22592         1         0
     22595         1         0     22598         1         0     22601         1         0
     22604         1         0     22607         1         0     22610         1         0
     22613         1         0     22616         1         0     22619         1         0
     22622         1         0     22625         1         0     22628         1         0
     22631         1         0     22634         1         0     22637         1         0
     22640         1         0     22643         1         0     22646         1         0
     22649         1         0     22652         1         0     22655         1         0
     22658         1         0     22661         1         0     22664         1         0
     22667         1         0     22670         1         0     22673         1         0
     22676         1         0     22679         1         0     22682         1         0
     22685         1         0     22688         1         0     22691         1         0
     22694         1         0     22697         1         0     22700         1         0
     22703         1         0     22706         1         0     22709         1         0
     22712         1         0     22715         1         0     22718         1         0
     22721         1         0     22724         1         0     22727         1         0
     22730         1         0     22733         1         0     22736         1         0
     22739         1         0     22742         1         0     22745         1         0
     22748         1         0     22751         1         0     22754         1         0
     22757         1         0     22760         1         0     22763         1         0
     22766         1         0     22769         1         0     22772         1         0
     22775         1         0     22778         1         0     22781         1         0
     22784         1         0     22787         1         0     22790         1         0
     22793         1         0     22796         1         0     22799         1         0
     22802         1         0     22805         1         0     22808         1         0
     22811         1         0     22814         1         0     22817         1         0
     22820         1         0     22823         1         0     22826         1         0
     22829         1         0     22832         1         0     22835         1         0
     22838         1         0     22841         1         0     22844         1         0
     22847         1         0     22850         1         0     22853         1         0
     22856         1         0     22859         1         0     22862         1         0
     22865         1         0     22868         1         0     22871         1         0
     22874         1         0     22877         1         0     22880         1         0
     22883         1         0     22886         1         0     22889         1         0
     22892         1         0     22895         1         0     22898         1         0
     22901         1         0     22904         1         0     22907         1         0
     22910         1         0     22913         1         0     22916         1         0
     22919         1         0     22922         1         0     22925         1         0
     22928         1         0     22931         1         0     22934         1         0
     22937         1         0     22940         1         0     22943         1         0
     22946         1         0     22949         1         0     22952         1         0
     22955         1         0     22958         1         0     22961         1         0
     22964         1         0     22967         1         0     22970         1         0
     22973         1         0     22976         1         0     22979         1         0
     22982         1         0     22985         1         0     22988         1         0
     22991         1         0     22994         1         0     22997         1         0
     23000         1         0     23003         1         0     23006         1         0
     23009         1         0     23012         1         0     23015         1         0
     23018         1         0     23021         1         0     23024         1         0
     23027         1         0     23030         1         0     23033         1         0
     23036         1         0     23039         1         0     23042         1         0
     23045         1         0     23048         1         0     23051         1         0
     23054         1         0     23057         1         0     23060         1         0
     23063         1         0     23066         1         0     23069         1         0
     23072         1         0     23075         1         0     23078         1         0
     23081         1         0     23084         1         0     23087         1         0
     23090         1         0     23093         1         0     23096         1         0
     23099         1         0     23102         1         0     23105         1         0
     23108         1         0     23111         1         0     23114         1         0
     23117         1         0     23120         1         0     23123         1         0
     23126         1         0     23129         1         0     23132         1         0
     23135         1         0     23138         1         0     23141         1         0
     23144         1         0     23147         1         0     23150         1         0
     23153         1         0     23156         1         0     23159         1         0
     23162         1         0     23165         1         0     23168         1         0
     23171         1         0     23174         1         0     23177         1         0
     23180         1         0     23183         1         0     23186         1         0
     23189         1         0     23192         1         0     23195         1         0
     23198         1         0     23201         1         0     23204         1         0
     23207         1         0     23210         1         0     23213         1         0
     23216         1         0     23219         1         0     23222         1         0
     23225         1         0     23228         1         0     23231         1         0
     23234         1         0     23237         1         0     23240         1         0
     23243         1         0     23246         1         0     23249         1         0
     23252         1         0     23255         1         0     23258         1         0
     23261         1         0     23264         1         0     23267         1         0
     23270         1         0     23273         1         0     23276         1         0
     23279         1         0     23282         1         0     23285         1         0
     23288         1         0     23291         1         0     23294         1         0
     23297         1         0     23300         1         0     23303         1         0
     23306         1         0     23309         1         0     23312         1         0
     23315         1         0     23318         1         0     23321         1         0
     23324         1         0     23327         1         0     23330         1         0
     23333         1         0     23336         1         0     23339         1         0
     23342         1         0     23345         1         0     23348         1         0
     23351         1         0     23354         1         0     23357         1         0
     23360         1         0     23363         1         0     23366         1         0
     23369         1         0     23372         1         0     23375         1         0
     23378         1         0     23381         1         0     23384         1         0
     23387         1         0     23390         1         0     23393         1         0
     23396         1         0     23399         1         0     23402         1         0
     23405         1         0     23408         1         0     23411         1         0
     23414         1         0     23417         1         0     23420         1         0
     23423         1         0     23426         1         0     23429         1         0
     23432         1         0     23435         1         0     23438         1         0
     23441         1         0     23444         1         0     23447         1         0
     23450         1         0     23453         1         0     23456         1         0
     23459         1         0     23462         1         0     23465         1         0
     23468         1         0     23471         1         0     23474         1         0
     23477         1         0     23480         1         0     23483         1         0
     23486         1         0     23489         1         0     23492         1         0
     23495         1         0     23498         1         0     23501         1         0
     23504         1         0     23507         1         0     23510         1         0
     23513         1         0     23516         1         0     23519         1         0
     23522         1         0     23525         1         0     23528         1         0
     23531         1         0     23534         1         0     23537         1         0
     23540         1         0     23543         1         0     23546         1         0
     23549         1         0     23552         1         0     23555         1         0
     23558         1         0     23561         1         0     23564         1         0
     23567         1         0     23570         1         0     23573         1         0
     23576         1         0     23579         1         0     23582         1         0
     23585         1         0     23588         1         0     23591         1         0
     23594         1         0     23597         1         0     23600         1         0
     23603         1         0     23606         1         0     23609         1         0
     23612         1         0     23615         1         0     23618         1         0
     23621         1         0     23624         1         0     23627         1         0
     23630         1         0     23633         1         0     23636         1         0
     23639         1         0     23642         1         0     23645         1         0
     23648         1         0     23651         1         0     23654         1         0
     23657         1         0     23660         1         0     23663         1         0
     23666         1         0     23669         1         0     23672         1         0
     23675         1         0     23678         1         0     23681         1         0
     23684         1         0     23687         1         0     23690         1         0
     23693         1         0     23696         1         0     23699         1         0
     23702         1         0     23705         1         0     23708         1         0
     23711         1         0     23714         1         0     23717         1         0
     23720         1         0     23723         1         0     23726         1         0
     23729         1         0     23732         1         0     23735         1         0
     23738         1         0     23741         1         0     23744         1         0
     23747         1         0     23750         1         0     23753         1         0
     23756         1         0     23759         1         0     23762         1         0
     23765         1         0     23768         1         0     23771         1         0
     23774         1         0     23777         1         0     23780         1         0
     23783         1         0     23786         1         0     23789         1         0
     23792         1         0     23795         1         0     23798         1         0
     23801         1         0     23804         1         0     23807         1         0
     23810         1         0     23813         1         0     23816         1         0
     23819         1         0     23822         1         0     23825         1         0
     23828         1         0     23831         1         0     23834         1         0
     23837         1         0     23840         1         0     23843         1         0
     23846         1         0     23849         1         0     23852         1         0
     23855         1         0     23858         1         0     23861         1         0
     23864         1         0     23867         1         0     23870         1         0
     23873         1         0     23876         1         0     23879         1         0
     23882         1         0     23885         1         0     23888         1         0
     23891         1         0     23894         1         0     23897         1         0
     23900         1         0     23903         1         0     23906         1         0
     23909         1         0     23912         1         0     23915         1         0
     23918         1         0     23921         1         0     23924         1         0
     23927         1         0     23930         1         0     23933         1         0
     23936         1         0     23939         1         0     23942         1         0
     23945         1         0     23948         1         0     23951         1         0
     23954         1         0     23957         1         0     23960         1         0
     23963         1         0     23966         1         0     23969         1         0
     23972         1         0     23975         1         0     23978         1         0
     23981         1         0     23984         1         0     23987         1         0
     23990         1         0     23993         1         0     23996         1         0
     23999         1         0     24002         1         0     24005         1         0
     24008         1         0     24011         1         0     24014         1         0
     24017         1         0     24020         1         0     24023         1         0
     24026         1         0     24029         1         0     24032         1         0
     24035         1         0     24038         1         0     24041         1         0
     24044         1         0     24047         1         0     24050         1         0
     24053         1         0     24056         1         0     24059         1         0
     24062         1         0     24065         1         0     24068         1         0
     24071         1         0     24074         1         0     24077         1         0
     24080         1         0     24083         1         0     24086         1         0
     24089         1         0     24092         1         0     24095         1         0
     24098         1         0     24101         1         0     24104         1         0
     24107         1         0     24110         1         0     24113         1         0
     24116         1         0     24119         1         0     24122         1         0
     24125         1         0     24128         1         0     24131         1         0
     24134         1         0     24137         1         0     24140         1         0
     24143         1         0     24146         1         0     24149         1         0
     24152         1         0     24155         1         0     24158         1         0
     24161         1         0     24164         1         0     24167         1         0
     24170         1         0     24173         1         0     24176         1         0
     24179         1         0     24182         1         0     24185         1         0
     24188         1         0     24191         1         0     24194         1         0
     24197         1         0     24200         1         0     24203         1         0
     24206         1         0     24209         1         0     24212         1         0
     24215         1         0     24218         1         0     24221         1         0
     24224         1         0     24227         1         0     24230         1         0
     24233         1         0     24236         1         0     24239         1         0
     24242         1         0     24245         1         0     24248         1         0
     24251         1         0     24254         1         0     24257         1         0
     24260         1         0     24263         1         0     24266         1         0
     24269         1         0     24272         1         0     24275         1         0
     24278         1         0     24281         1         0     24284         1         0
     24287         1         0     24290         1         0     24293         1         0
     24296         1         0     24299         1         0     24302         1         0
     24305         1         0     24308         1         0     24311         1         0
     24314         1         0     24317         1         0     24320         1         0
     24323         1         0     24326         1         0     24329         1         0
     24332         1         0     24335         1         0     24338         1         0
     24341         1         0     24344         1         0     24347         1         0
     24350         1         0     24353         1         0     24356         1         0
     24359         1         0     24362         1         0     24365         1         0
     24368         1         0     24371         1         0     24374         1         0
     24377         1         0     24380         1         0     24383         1         0
     24386         1         0     24389         1         0     24392         1         0
     24395         1         0     24398         1         0     24401         1         0
     24404         1         0     24407         1         0     24410         1         0
     24413         1         0     24416         1         0     24419         1         0
     24422         1         0     24425         1         0     24428         1         0
     24431         1         0     24434         1         0     24437         1         0
     24440         1         0     24443         1         0     24446         1         0
     24449         1         0     24452         1         0     24455         1         0
     24458         1         0     24461         1         0     24464         1         0
     24467         1         0     24470         1         0     24473         1         0
     24476         1         0     24479         1         0     24482         1         0
     24485         1         0     24488         1         0     24491         1         0
     24494         1         0     24497         1         0     24500         1         0
     24503         1         0     24506         1         0     24509         1         0
     24512         1         0     24515         1         0     24518         1         0
     24521         1         0     24524         1         0     24527         1         0
     24530         1         0     24533         1         0     24536         1         0
     24539         1         0     24542         1         0     24545         1         0
     24548         1         0     24551         1         0     24554         1         0
     24557         1         0     24560         1         0     24563         1         0
     24566         1         0     24569         1         0     24572         1         0
     24575         1         0     24578         1         0     24581         1         0
     24584         1         0     24587         1         0     24590         1         0
     24593         1         0     24596         1         0     24599         1         0
     24602         1         0     24605         1         0     24608         1         0
     24611         1         0     24614         1         0     24617         1         0
     24620         1         0     24623         1         0     24626         1         0
     24629         1         0     24632         1         0     24635         1         0
     24638         1         0     24641         1         0     24644         1         0
     24647         1         0     24650         1         0     24653         1         0
     24656         1         0     24659         1         0     24662         1         0
     24665         1         0     24668         1         0     24671         1         0
     24674         1         0     24677         1         0     24680         1         0
     24683         1         0     24686         1         0     24689         1         0
     24692         1         0     24695         1         0     24698         1         0
     24701         1         0     24704         1         0     24707         1         0
     24710         1         0     24713         1         0     24716         1         0
     24719         1         0     24722         1         0     24725         1         0
     24728         1         0     24731         1         0     24734         1         0
     24737         1         0     24740         1         0     24743         1         0
     24746         1         0     24749         1         0     24752         1         0
     24755         1         0     24758         1         0     24761         1         0
     24764         1         0     24767         1         0     24770         1         0
     24773         1         0     24776         1         0     24779         1         0
     24782         1         0     24785         1         0     24788         1         0
     24791         1         0     24794         1         0     24797         1         0
     24800         1         0     24803         1         0     24806         1         0
     24809         1         0     24812         1         0     24815         1         0
     24818         1         0     24821         1         0     24824         1         0
     24827         1         0     24830         1         0     24833         1         0
     24836         1         0     24839         1         0     24842         1         0
     24845         1         0     24848         1         0     24851         1         0
     24854         1         0     24857         1         0     24860         1         0
     24863         1         0     24866         1         0     24869         1         0
     24872         1         0     24875         1         0     24878         1         0
     24881         1         0     24884         1         0     24887         1         0
     24890         1         0     24893         1         0     24896         1         0
     24899         1         0     24902         1         0     24905         1         0
     24908         1         0     24911         1         0     24914         1         0
     24917         1         0     24920         1         0     24923         1         0
     24926         1         0     24929         1         0     24932         1         0
     24935         1         0     24938         1         0     24941         1         0
     24944         1         0     24947         1         0     24950         1         0
     24953         1         0     24956         1         0     24959         1         0
     24962         1         0     24965         1         0     24968         1         0
     24971         1         0     24974         1         0     24977         1         0
     24980         1         0     24983         1         0     24986         1         0
     24989         1         0     24992         1         0     24995         1         0
     24998         1         0     25001         1         0     25004         1         0
     25007         1         0     25010         1         0     25013         1         0
     25016         1         0     25019         1         0     25022         1         0
     25025         1         0     25028         1         0     25031         1         0
     25034         1         0     25037         1         0     25040         1         0
     25043         1         0     25046         1         0     25049         1         0
     25052         1         0     25055         1         0     25058         1         0
     25061         1         0     25064         1         0     25067         1         0
     25070         1         0     25073         1         0     25076         1         0
     25079         1         0     25082         1         0     25085         1         0
     25088         1         0     25091         1         0     25094         1         0
     25097         1         0     25100         1         0     25103         1         0
     25106         1         0     25109         1         0     25112         1         0
     25115         1         0     25118         1         0     25121         1         0
     25124         1         0     25127         1         0     25130         1         0
     25133         1         0     25136         1         0     25139         1         0
     25142         1         0     25145         1         0     25148         1         0
     25151         1         0     25154         1         0     25157         1         0
     25160         1         0     25163         1         0     25166         1         0
     25169         1         0     25172         1         0     25175         1         0
     25178         1         0     25181         1         0     25184         1         0
     25187         1         0     25190         1         0     25193         1         0
     25196         1         0     25199         1         0     25202         1         0
     25205         1         0     25208         1         0     25211         1         0
     25214         1         0     25217         1         0     25220         1         0
     25223         1         0     25226         1         0     25229         1         0
     25232         1         0     25235         1         0     25238         1         0
     25241         1         0     25244         1         0     25247         1         0
     25250         1         0     25253         1         0     25256         1         0
     25259         1         0     25262         1         0     25265         1         0
     25268         1         0     25271         1         0     25274         1         0
     25277         1         0     25280         1         0     25283         1         0
     25286         1         0     25289         1         0     25292         1         0
     25295         1         0     25298         1         0     25301         1         0
     25304         1         0     25307         1         0     25310         1         0
     25313         1         0     25316         1         0     25319         1         0
     25322         1         0     25325         1         0     25328         1         0
     25331         1         0     25334         1         0     25337         1         0
     25340         1         0     25343         1         0     25346         1         0
     25349         1         0     25352         1         0     25355         1         0
     25358         1         0     25361         1         0     25364         1         0
     25367         1         0     25370         1         0     25373         1         0
     25376         1         0     25379         1         0     25382         1         0
     25385         1         0     25388         1         0     25391         1         0
     25394         1         0     25397         1         0     25400         1         0
     25403         1         0     25406         1         0     25409         1         0
     25412         1         0     25415         1         0     25418         1         0
     25421         1         0     25424         1         0     25427         1         0
     25430         1         0     25433         1         0     25436         1         0
     25439         1         0     25442         1         0     25445         1         0
     25448         1         0     25451         1         0     25454         1         0
     25457         1         0     25460         1         0     25463         1         0
     25466         1         0     25469         1         0     25472         1         0
     25475         1         0     25478         1         0     25481         1         0
     25484         1         0     25487         1         0     25490         1         0
     25493         1         0     25496         1         0     25499         1         0
     25502         1         0     25505         1         0     25508         1         0
     25511         1         0     25514         1         0     25517         1         0
     25520         1         0     25523         1         0     25526         1         0
     25529         1         0     25532         1         0     25535         1         0
     25538         1         0     25541         1         0     25544         1         0
     25547         1         0     25550         1         0     25553         1         0
     25556         1         0     25559         1         0     25562         1         0
     25565         1         0     25568         1         0     25571         1         0
     25574         1         0     25577         1         0     25580         1         0
     25583         1         0     25586         1         0     25589         1         0
     25592         1         0     25595         1         0     25598         1         0
     25601         1         0     25604         1         0     25607         1         0
     25610         1         0     25613         1         0     25616         1         0
     25619         1         0     25622         1         0     25625         1         0
     25628         1         0     25631         1         0     25634         1         0
     25637         1         0     25640         1         0     25643         1         0
     25646         1         0     25649         1         0     25652         1         0
     25655         1         0     25658         1         0     25661         1         0
     25664         1         0     25667         1         0     25670         1         0
     25673         1         0     25676         1         0     25679         1         0
     25682         1         0     25685         1         0     25688         1         0
     25691         1         0     25694         1         0     25697         1         0
     25700         1         0     25703         1         0     25706         1         0
     25709         1         0     25712         1         0     25715         1         0
     25718         1         0     25721         1         0     25724         1         0
     25727         1         0     25730         1         0     25733         1         0
     25736         1         0     25739         1         0     25742         1         0
     25745         1         0     25748         1         0     25751         1         0
     25754         1         0     25757         1         0     25760         1         0
     25763         1         0     25766         1         0     25769         1         0
     25772         1         0     25775         1         0     25778         1         0
     25781         1         0     25784         1         0     25787         1         0
     25790         1         0     25793         1         0     25796         1         0
     25799         1         0     25802         1         0     25805         1         0
     25808         1         0     25811         1         0     25814         1         0
     25817         1         0     25820         1         0     25823         1         0
     25826         1         0     25829         1         0     25832         1         0
     25835         1         0     25838         1         0     25841         1         0
     25844         1         0     25847         1         0     25850         1         0
     25853         1         0     25856         1         0     25859         1         0
     25862         1         0     25865         1         0     25868         1         0
     25871         1         0     25874         1         0     25877         1         0
     25880         1         0     25883         1         0     25886         1         0
     25889         1         0     25892         1         0     25895         1         0
     25898         1         0     25901         1         0     25904         1         0
     25907         1         0     25910         1         0     25913         1         0
     25916         1         0     25919         1         0     25922         1         0
     25925         1         0     25928         1         0     25931         1         0
     25934         1         0     25937         1         0     25940         1         0
     25943         1         0     25946         1         0     25949         1         0
     25952         1         0     25955         1         0     25958         1         0
     25961         1         0     25964         1         0     25967         1         0
     25970         1         0     25973         1         0     25976         1         0
     25979         1         0     25982         1         0     25985         1         0
     25988         1         0     25991         1         0     25994         1         0
     25997         1         0     26000         1         0     26003         1         0
     26006         1         0     26009         1         0     26012         1         0
     26015         1         0     26018         1         0     26021         1         0
     26024         1         0     26027         1         0     26030         1         0
     26033         1         0     26036         1         0     26039         1         0
     26042         1         0     26045         1         0     26048         1         0
     26051         1         0     26054         1         0     26057         1         0
     26060         1         0     26063         1         0     26066         1         0
     26069         1         0     26072         1         0     26075         1         0
     26078         1         0     26081         1         0     26084         1         0
     26087         1         0     26090         1         0     26093         1         0
     26096         1         0     26099         1         0     26102         1         0
     26105         1         0     26108         1         0     26111         1         0
     26114         1         0     26117         1         0     26120         1         0
     26123         1         0     26126         1         0     26129         1         0
     26132         1         0     26135         1         0     26138         1         0
     26141         1         0     26144         1         0     26147         1         0
     26150         1         0     26153         1         0     26156         1         0
     26159         1         0     26162         1         0     26165         1         0
     26168         1         0     26171         1         0     26174         1         0
     26177         1         0     26180         1         0     26183         1         0
     26186         1         0     26189         1         0     26192         1         0
     26195         1         0     26198         1         0     26201         1         0
     26204         1         0     26207         1         0     26210         1         0
     26213         1         0     26216         1         0     26219         1         0
     26222         1         0     26225         1         0     26228         1         0
     26231         1         0     26234         1         0     26237         1         0
     26240         1         0     26243         1         0     26246         1         0
     26249         1         0     26252         1         0     26255         1         0
     26258         1         0     26261         1         0     26264         1         0
     26267         1         0     26270         1         0     26273         1         0
     26276         1         0     26279         1         0     26282         1         0
     26285         1         0     26288         1         0     26291         1         0
     26294         1         0     26297         1         0     26300         1         0
     26303         1         0     26306         1         0     26309         1         0
     26312         1         0     26315         1         0     26318         1         0
     26321         1         0     26324         1         0     26327         1         0
     26330         1         0     26333         1         0     26336         1         0
     26339         1         0     26342         1         0     26345         1         0
     26348         1         0     26351         1         0     26354         1         0
     26357         1         0     26360         1         0     26363         1         0
     26366         1         0     26369         1         0     26372         1         0
     26375         1         0     26378         1         0     26381         1         0
     26384         1         0     26387         1         0     26390         1         0
     26393         1         0     26396         1         0     26399         1         0
     26402         1         0     26405         1         0     26408         1         0
     26411         1         0     26414         1         0     26417         1         0
     26420         1         0     26423         1         0     26426         1         0
     26429         1         0     26432         1         0     26435         1         0
     26438         1         0     26441         1         0     26444         1         0
     26447         1         0     26450         1         0     26453         1         0
     26456         1         0     26459         1         0     26462         1         0
     26465         1         0     26468         1         0     26471         1         0
     26474         1         0     26477         1         0     26480         1         0
     26483         1         0     26486         1         0     26489         1         0
     26492         1         0     26495         1         0     26498         1         0
     26501         1         0     26504         1         0     26507         1         0
     26510         1         0     26513         1         0     26516         1         0
     26519         1         0     26522         1         0     26525         1         0
     26528         1         0     26531         1         0     26534         1         0
     26537         1         0     26540         1         0     26543         1         0
     26546         1         0     26549         1         0     26552         1         0
     26555         1         0     26558         1         0     26561         1         0
     26564         1         0     26567         1         0     26570         1         0
     26573         1         0     26576         1         0     26579         1         0
     26582         1         0     26585         1         0     26588         1         0
     26591         1         0     26594         1         0     26597         1         0
     26600         1         0     26603         1         0     26606         1         0
     26609         1         0     26612         1         0     26615         1         0
     26618         1         0     26621         1         0     26624         1         0
     26627         1         0     26630         1         0     26633         1         0
     26636         1         0     26639         1         0     26642         1         0
     26645         1         0     26648         1         0     26651         1         0
     26654         1         0     26657         1         0     26660         1         0
     26663         1         0     26666         1         0     26669         1         0
     26672         1         0     26675         1         0     26678         1         0
     26681         1         0     26684         1         0     26687         1         0
     26690         1         0     26693         1         0     26696         1         0
     26699         1         0     26702         1         0     26705         1         0
     26708         1         0     26711         1         0     26714         1         0
     26717         1         0     26720         1         0     26723         1         0
     26726         1         0     26729         1         0     26732         1         0
     26735         1         0     26738         1         0     26741         1         0
     26744         1         0     26747         1         0     26750         1         0
     26753         1         0     26756         1         0     26759         1         0
     26762         1         0     26765         1         0     26768         1         0
     26771         1         0     26774         1         0     26777         1         0
     26780         1         0     26783         1         0     26786         1         0
     26789         1         0     26792         1         0     26795         1         0
     26798         1         0     26801         1         0     26804         1         0
     26807         1         0     26810         1         0     26813         1         0
     26816         1         0     26819         1         0     26822         1         0
     26825         1         0     26828         1         0     26831         1         0
     26834         1         0     26837         1         0     26840         1         0
     26843         1         0     26846         1         0     26849         1         0
     26852         1         0     26855         1         0     26858         1         0
     26861         1         0     26864         1         0     26867         1         0
     26870         1         0     26873         1         0     26876         1         0
     26879         1         0     26882         1         0     26885         1         0
     26888         1         0     26891         1         0     26894         1         0
     26897         1         0     26900         1         0     26903         1         0
     26906         1         0     26909         1         0     26912         1         0
     26915         1         0     26918         1         0     26921         1         0
     26924         1         0     26927         1         0     26930         1         0
     26933         1         0     26936         1         0     26939         1         0
     26942         1         0     26945         1         0     26948         1         0
     26951         1         0     26954         1         0     26957         1         0
     26960         1         0     26963         1         0     26966         1         0
     26969         1         0     26972         1         0     26975         1         0
     26978         1         0     26981         1         0     26984         1         0
     26987         1         0     26990         1         0     26993         1         0
     26996         1         0     26999         1         0     27002         1         0
     27005         1         0     27008         1         0     27011         1         0
     27014         1         0     27017         1         0     27020         1         0
     27023         1         0     27026         1         0     27029         1         0
     27032         1         0     27035         1         0     27038         1         0
     27041         1         0     27044         1         0     27047         1         0
     27050         1         0     27053         1         0     27056         1         0
     27059         1         0     27062         1         0     27065         1         0
     27068         1         0     27071         1         0     27074         1         0
     27077         1         0     27080         1         0     27083         1         0
     27086         1         0     27089         1         0     27092         1         0
     27095         1         0     27098         1         0     27101         1         0
     27104         1         0     27107         1         0     27110         1         0
     27113         1         0     27116         1         0     27119         1         0
     27122         1         0     27125         1         0     27128         1         0
     27131         1         0     27134         1         0     27137         1         0
     27140         1         0     27143         1         0     27146         1         0
     27149         1         0     27152         1         0     27155         1         0
     27158         1         0     27161         1         0     27164         1         0
     27167         1         0     27170         1         0     27173         1         0
     27176         1         0     27179         1         0     27182         1         0
     27185         1         0     27188         1         0     27191         1         0
     27194         1         0     27197         1         0     27200         1         0
     27203         1         0     27206         1         0     27209         1         0
     27212         1         0     27215         1         0     27218         1         0
     27221         1         0     27224         1         0     27227         1         0
     27230         1         0     27233         1         0     27236         1         0
     27239         1         0     27242         1         0     27245         1         0
     27248         1         0     27251         1         0     27254         1         0
     27257         1         0     27260         1         0     27263         1         0
     27266         1         0     27269         1         0     27272         1         0
     27275         1         0     27278         1         0     27281         1         0
     27284         1         0     27287         1         0     27290         1         0
     27293         1         0     27296         1         0     27299         1         0
     27302         1         0     27305         1         0     27308         1         0
     27311         1         0     27314         1         0     27317         1         0
     27320         1         0     27323         1         0     27326         1         0
     27329         1         0     27332         1         0     27335         1         0
     27338         1         0     27341         1         0     27344         1         0
     27347         1         0     27350         1         0     27353         1         0
     27356         1         0     27359         1         0     27362         1         0
     27365         1         0     27368         1         0     27371         1         0
     27374         1         0     27377         1         0     27380         1         0
     27383         1         0     27386         1         0     27389         1         0
     27392         1         0     27395         1         0     27398         1         0
     27401         1         0     27404         1         0     27407         1         0
     27410         1         0     27413         1         0     27416         1         0
     27419         1         0     27422         1         0     27425         1         0
     27428         1         0     27431         1         0     27434         1         0
     27437         1         0     27440         1         0     27443         1         0
     27446         1         0     27449         1         0     27452         1         0
     27455         1         0     27458         1         0     27461         1         0
     27464         1         0     27467         1         0     27470         1         0
     27473         1         0     27476         1         0     27479         1         0
     27482         1         0     27485         1         0     27488         1         0
     27491         1         0     27494         1         0     27497         1         0
     27500         1         0     27503         1         0     27506         1         0
     27509         1         0     27512         1         0     27515         1         0
     27518         1         0     27521         1         0     27524         1         0
     27527         1         0     27530         1         0     27533         1         0
     27536         1         0     27539         1         0     27542         1         0
     27545         1         0     27548         1         0     27551         1         0
     27554         1         0     27557         1         0     27560         1         0
     27563         1         0     27566         1         0     27569         1         0
     27572         1         0     27575         1         0     27578         1         0
     27581         1         0     27584         1         0     27587         1         0
     27590         1         0     27593         1         0     27596         1         0
     27599         1         0     27602         1         0     27605         1         0
     27608         1         0     27611         1         0     27614         1         0
     27617         1         0     27620         1         0     27623         1         0
     27626         1         0     27629         1         0     27632         1         0
     27635         1         0     27638         1         0     27641         1         0
     27644         1         0     27647         1         0     27650         1         0
     27653         1         0     27656         1         0     27659         1         0
     27662         1         0     27665         1         0     27668         1         0
     27671         1         0     27674         1         0     27677         1         0
     27680         1         0     27683         1         0     27686         1         0
     27689         1         0     27692         1         0     27695         1         0
     27698         1         0     27701         1         0     27704         1         0
     27707         1         0     27710         1         0     27713         1         0
     27716         1         0     27719         1         0     27722         1         0
     27725         1         0     27728         1         0     27731         1         0
     27734         1         0     27737         1         0     27740         1         0
     27743         1         0     27746         1         0     27749         1         0
     27752         1         0     27755         1         0     27758         1         0
     27761         1         0     27764         1         0     27767         1         0
     27770         1         0     27773         1         0     27776         1         0
     27779         1         0     27782         1         0     27785         1         0
     27788         1         0     27791         1         0     27794         1         0
     27797         1         0     27800         1         0     27803         1         0
     27806         1         0     27809         1         0     27812         1         0
     27815         1         0     27818         1         0     27821         1         0
     27824         1         0     27827         1         0     27830         1         0
     27833         1         0     27836         1         0     27839         1         0
     27842         1         0     27845         1         0     27848         1         0
     27851         1         0     27854         1         0     27857         1         0
     27860         1         0     27863         1         0     27866         1         0
     27869         1         0     27872         1         0     27875         1         0
     27878         1         0     27881         1         0     27884         1         0
     27887         1         0     27890         1         0     27893         1         0
     27896         1         0     27899         1         0     27902         1         0
     27905         1         0     27908         1         0     27911         1         0
     27914         1         0     27917         1         0     27920         1         0
     27923         1         0     27926         1         0     27929         1         0
     27932         1         0     27935         1         0     27938         1         0
     27941         1         0     27944         1         0     27947         1         0
     27950         1         0     27953         1         0     27956         1         0
     27959         1         0     27962         1         0     27965         1         0
     27968         1         0     27971         1         0     27974         1         0
     27977         1         0     27980         1         0     27983         1         0
     27986         1         0     27989         1         0     27992         1         0
     27995         1         0     27998         1         0     28001         1         0
     28004         1         0     28007         1         0     28010         1         0
     28013         1         0     28016         1         0     28019         1         0
     28022         1         0     28025         1         0     28028         1         0
     28031         1         0     28034         1         0     28037         1         0
     28040         1         0     28043         1         0     28046         1         0
     28049         1         0     28052         1         0     28055         1         0
     28058         1         0     28061         1         0     28064         1         0
     28067         1         0     28070         1         0     28073         1         0
     28076         1         0     28079         1         0     28082         1         0
     28085         1         0     28088         1         0     28091         1         0
     28094         1         0     28097         1         0     28100         1         0
     28103         1         0     28106         1         0     28109         1         0
     28112         1         0     28115         1         0     28118         1         0
     28121         1         0     28124         1         0     28127         1         0
     28130         1         0     28133         1         0     28136         1         0
     28139         1         0     28142         1         0     28145         1         0
     28148         1         0     28151         1         0     28154         1         0
     28157         1         0     28160         1         0     28163         1         0
     28166         1         0     28169         1         0     28172         1         0
     28175         1         0     28178         1         0     28181         1         0
     28184         1         0     28187         1         0     28190         1         0
     28193         1         0     28196         1         0     28199         1         0
     28202         1         0     28205         1         0     28208         1         0
     28211         1         0     28214         1         0     28217         1         0
     28220         1         0     28223         1         0     28226         1         0
     28229         1         0     28232         1         0     28235         1         0
     28238         1         0     28241         1         0     28244         1         0
     28247         1         0     28250         1         0     28253         1         0
     28256         1         0     28259         1         0     28262         1         0
     28265         1         0     28268         1         0     28271         1         0
     28274         1         0     28277         1         0     28280         1         0
     28283         1         0     28286         1         0     28289         1         0
     28292         1         0     28295         1         0     28298         1         0
     28301         1         0     28304         1         0     28307         1         0
     28310         1         0     28313         1         0     28316         1         0
     28319         1         0     28322         1         0     28325         1         0
     28328         1         0     28331         1         0     28334         1         0
     28337         1         0     28340         1         0     28343         1         0
     28346         1         0     28349         1         0     28352         1         0
     28355         1         0     28358         1         0     28361         1         0
     28364         1         0     28367         1         0     28370         1         0
     28373         1         0     28376         1         0     28379         1         0
     28382         1         0     28385         1         0     28388         1         0
     28391         1         0     28394         1         0     28397         1         0
     28400         1         0     28403         1         0     28406         1         0
     28409         1         0     28412         1         0     28415         1         0
     28418         1         0     28421         1         0     28424         1         0
     28427         1         0     28430         1         0     28433         1         0
     28436         1         0     28439         1         0     28442         1         0
     28445         1         0     28448         1         0     28451         1         0
     28454         1         0     28457         1         0     28460         1         0
     28463         1         0     28466         1         0     28469         1         0
     28472         1         0     28475         1         0     28478         1         0
     28481         1         0     28484         1         0     28487         1         0
     28490         1         0     28493         1         0     28496         1         0
     28499         1         0     28502         1         0     28505         1         0
     28508         1         0     28511         1         0     28514         1         0
     28517         1         0     28520         1         0     28523         1         0
     28526         1         0     28529         1         0     28532         1         0
     28535         1         0     28538         1         0     28541         1         0
     28544         1         0     28547         1         0     28550         1         0
     28553         1         0     28556         1         0     28559         1         0
     28562         1         0     28565         1         0     28568         1         0
     28571         1         0     28574         1         0     28577         1         0
     28580         1         0     28583         1         0     28586         1         0
     28589         1         0     28592         1         0     28595         1         0
     28598         1         0     28601         1         0     28604         1         0
     28607         1         0     28610         1         0     28613         1         0
     28616         1         0     28619         1         0     28622         1         0
     28625         1         0     28628         1         0     28631         1         0
     28634         1         0     28637         1         0     28640         1         0
     28643         1         0     28646         1         0     28649         1         0
     28652         1         0     28655         1         0     28658         1         0
     28661         1         0     28664         1         0     28667         1         0
     28670         1         0     28673         1         0     28676         1         0
     28679         1         0     28682         1         0     28685         1         0
     28688         1         0     28691         1         0     28694         1         0
     28697         1         0     28700         1         0     28703         1         0
     28706         1         0     28709         1         0     28712         1         0
     28715         1         0     28718         1         0     28721         1         0
     28724         1         0     28727         1         0     28730         1         0
     28733         1         0     28736         1         0     28739         1         0
     28742         1         0     28745         1         0     28748         1         0
     28751         1         0     28754         1         0     28757         1         0
     28760         1         0     28763         1         0     28766         1         0
     28769         1         0     28772         1         0     28775         1         0
     28778         1         0     28781         1         0     28784         1         0
     28787         1         0     28790         1         0     28793         1         0
     28796         1         0     28799         1         0     28802         1         0
     28805         1         0     28808         1         0     28811         1         0
     28814         1         0     28817         1         0     28820         1         0
     28823         1         0     28826         1         0     28829         1         0
     28832         1         0     28835         1         0     28838         1         0
     28841         1         0     28844         1         0     28847         1         0
     28850         1         0     28853         1         0     28856         1         0
     28859         1         0     28862         1         0     28865         1         0
     28868         1         0     28871         1         0     28874         1         0
     28877         1         0     28880         1         0     28883         1         0
     28886         1         0     28889         1         0     28892         1         0
     28895         1         0     28898         1         0     28901         1         0
     28904         1         0     28907         1         0     28910         1         0
     28913         1         0     28916         1         0     28919         1         0
     28922         1         0     28925         1         0     28928         1         0
     28931         1         0     28934         1         0     28937         1         0
     28940         1         0     28943         1         0     28946         1         0
     28949         1         0     28952         1         0     28955         1         0
     28958         1         0     28961         1         0     28964         1         0
     28967         1         0     28970         1         0     28973         1         0
     28976         1         0     28979         1         0     28982         1         0
     28985         1         0     28988         1         0     28991         1         0
     28994         1         0     28997         1         0     29000         1         0
     29003         1         0     29006         1         0     29009         1         0
     29012         1         0     29015         1         0     29018         1         0
     29021         1         0     29024         1         0     29027         1         0
     29030         1         0     29033         1         0     29036         1         0
     29039         1         0     29042         1         0     29045         1         0
     29048         1         0     29051         1         0     29054         1         0
     29057         1         0     29060         1         0     29063         1         0
     29066         1         0     29069         1         0     29072         1         0
     29075         1         0     29078         1         0     29081         1         0
     29084         1         0     29087         1         0     29090         1         0
     29093         1         0     29096         1         0     29099         1         0
     29102         1         0     29105         1         0     29108         1         0
     29111         1         0     29114         1         0     29117         1         0
     29120         1         0     29123         1         0     29126         1         0
     29129         1         0     29132         1         0     29135         1         0
     29138         1         0     29141         1         0     29144         1         0
     29147         1         0     29150         1         0     29153         1         0
     29156         1         0     29159         1         0     29162         1         0
     29165         1         0     29168         1         0     29171         1         0
     29174         1         0     29177         1         0     29180         1         0
     29183         1         0     29186         1         0     29189         1         0
     29192         1         0     29195         1         0     29198         1         0
     29201         1         0     29204         1         0     29207         1         0
     29210         1         0     29213         1         0     29216         1         0
     29219         1         0     29222         1         0     29225         1         0
     29228         1         0     29231         1         0     29234         1         0
     29237         1         0     29240         1         0     29243         1         0
     29246         1         0     29249         1         0     29252         1         0
     29255         1         0     29258         1         0     29261         1         0
     29264         1         0     29267         1         0     29270         1         0
     29273         1         0     29276         1         0     29279         1         0
     29282         1         0     29285         1         0     29288         1         0
     29291         1         0     29294         1         0     29297         1         0
     29300         1         0     29303         1         0     29306         1         0
     29309         1         0     29312         1         0     29315         1         0
     29318         1         0     29321         1         0     29324         1         0
     29327         1         0     29330         1         0     29333         1         0
     29336         1         0     29339         1         0     29342         1         0
     29345         1         0     29348         1         0     29351         1         0
     29354         1         0     29357         1         0     29360         1         0
     29363         1         0     29366         1         0     29369         1         0
     29372         1         0     29375         1         0     29378         1         0
     29381         1         0     29384         1         0     29387         1         0
     29390         1         0     29393         1         0     29396         1         0
     29399         1         0     29402         1         0     29405         1         0
     29408         1         0     29411         1         0     29414         1         0
     29417         1         0     29420         1         0     29423         1         0
     29426         1         0     29429         1         0     29432         1         0
     29435         1         0     29438         1         0     29441         1         0
     29444         1         0     29447         1         0     29450         1         0
     29453         1         0     29456         1         0     29459         1         0
     29462         1         0     29465         1         0     29468         1         0
     29471         1         0     29474         1         0     29477         1         0
     29480         1         0     29483         1         0     29486         1         0
     29489         1         0     29492         1         0     29495         1         0
     29498         1         0     29501         1         0     29504         1         0
     29507         1         0     29510         1         0     29513         1         0
     29516         1         0     29519         1         0     29522         1         0
     29525         1         0     29528         1         0     29531         1         0
     29534         1         0     29537         1         0     29540         1         0
     29543         1         0     29546         1         0     29549         1         0
     29552         1         0     29555         1         0     29558         1         0
     29561         1         0     29564         1         0     29567         1         0
     29570         1         0     29573         1         0     29576         1         0
     29579         1         0     29582         1         0     29585         1         0
     29588         1         0     29591         1         0     29594         1         0
     29597         1         0     29600         1         0     29603         1         0
     29606         1         0     29609         1         0     29612         1         0
     29615         1         0     29618         1         0     29621         1         0
     29624         1         0     29627         1         0     29630         1         0
     29633         1         0     29636         1         0     29639         1         0
     29642         1         0     29645         1         0     29648         1         0
     29651         1         0     29654         1         0     29657         1         0
     29660         1         0     29663         1         0     29666         1         0
     29669         1         0     29672         1         0     29675         1         0
     29678         1         0     29681         1         0     29684         1         0
     29687         1         0     29690         1         0     29693         1         0
     29696         1         0     29699         1         0     29702         1         0
     29705         1         0     29708         1         0     29711         1         0
     29714         1         0     29717         1         0     29720         1         0
     29723         1         0     29726         1         0     29729         1         0
     29732         1         0     29735         1         0     29738         1         0
     29741         1         0     29744         1         0     29747         1         0
     29750         1         0     29753         1         0     29756         1         0
     29759         1         0     29762         1         0     29765         1         0
     29768         1         0     29771         1         0     29774         1         0
     29777         1         0     29780         1         0     29783         1         0
     29786         1         0     29789         1         0     29792         1         0
     29795         1         0     29798         1         0     29801         1         0
     29804         1         0     29807         1         0     29810         1         0
     29813         1         0     29816         2         0     29817         2         0
     29818         2         0     29819         2         0     29820         2         0
     29821         2         0     29822         2         0     29823         2         0
     29824         2         0     29825         2         0     29826         2         0
     29827         2         0     29828         2         0     29829         2         0
     29830         2         0     29831         2         0     29832         2         0
     29833         2         0     29834         2         0     29835         2         0
     29836         2         0     29837         2         0     29838         2         0
     29839         2         0     29840         2         0     29841         2         0
     29842         2         0     29843         2         0     29844         2         0
     29845         2         0     29846         2         0     29847         2         0
     29848         2         0     29849         2         0     29850         2         0
     29851         2         0

         0         0 !NUMLP NUMLPH

         0 !NCRTERM: cross-terms


      7080 !AUTOGEN
         0         0         0         0         0         0         0         0
         0         0         0         0         0         0         0         0
         0         0         0         0         0         0         0         0
         0         0         0         0         0         0         0         0
         0         0         0         0         0         0         0         0
         0         0         0         0         0         0         0         0
         0         0         0         0         0         0         0         0
         0         0         0         0         0         0         0         0
         0         0         0         0         0         0         0         0
         0         0         0         0         0         0         0         0
         0         0         0         0         0         0         0         0
         0         0         0         0         0         0         0         0
         0         0         0         0         0         0         0         0
         0         0         0         0         0         0         0         0
         0         0         0         0         0         0         0         0
         0         0         0         0         0         0         0         0
         0         0         0         0         0         0         0         0
         0         0         0         0         0         0         0         0
         0         0         0         0         0         0         0         0
         0         0         0         0         0         0         0         0
         0         0         0         0         0         0         0         0
         0         0         0         0         0         0         0         0
         0         0         0         0         0         0         0         0
         0         0         0         0         0         0         0         0
         0         0         0         0         0         0         0         0
         0         0         0         0         0         0         0         0
         0         0         0         0         0         0         0         0
         0         0         0         0         0         0         0         0
         0         0         0         0         0         0         0         0
         0         0         0         0         0         0         0         0
         0         0         0         0         0         0         0         0
         0         0         0         0         0         0         0         0
         0         0         0         0         0         0         0         0
         0         0         0         0         0         0         0         0
         0         0         0         0         0         0         0         0
         0         0         0         0         0         0         0         0
         0         0         0         0         0         0         0         0
         0         0         0         0         0         0         0         0
         0         0         0         0         0         0         0         0
         0         0         0         0         0         0         0         0
         0         0         0         0         0         0         0         0
         0         0         0         0         0         0         0         0
         0         0         0         0         0         0         0         0
         0         0         0         0         0         0         0         0
         0         0         0         0         0         0         0         0
         0         0         0         0         0         0         0         0
         0         0         0         0         0         0         0         0
         0         0         0         0         0         0         0         0
         0         0         0         0         0         0         0         0
         0         0         0         0         0         0         0         0
         0         0         0         0         0         0         0         0
         0         0         0         0         0         0         0         0
         0         0         0         0         0         0         0         0
         0         0         0         0         0         0         0         0
         0         0         0         0         0         0         0         0
         0         0         0         0         0         0         0         0
         0         0         0         0         0         0         0         0
         0         0         0         0         0         0         0         0
         0         0         0         0         0         0         0         0
         0         0         0         0         0         0         0         0
         0         0         0         0         0         0         0         0
         0         0         0         0         0         0         0         0
         0         0         0         0         0         0         0         0
         0         0         0         0         0         0         0         0
         0         0         0         0         0         0         0         0
         0         0         0         0         0         0         0         0
         0         0         0         0         0         0         0         0
         0         0         0         0         0         0         0         0
         0         0         0         0         0         0         0         0
         0         0         0         0         0         0         0         0
         0         0         0         0         0         0         0         0
         0         0         0         0         0         0         0         0
         0         0         0         0         0         0         0         0
         0         0         0         0         0         0         0         0
         0         0         0         0         0         0         0         0
         0         0         0         0         0         0         0         0
         0         0         0         0         0         0         0         0
         0         0         0         0         0         0         0         0
         0         0         0         0         0         0         0         0
         0         0         0         0         0         0         0         0
         0         0         0         0         0         0         0         0
         0         0         0         0         0         0         0         0
         0         0         0         0         0         0         0         0
         0         0         0         0         0         0         0         0
         0         0         0         0         0         0         0         0
         0         0         0         0         0         0         0         0
         0         0         0         0         0         0         0         0
         0         0         0         0         0         0         0         0
         0         0         0         0         0         0         0         0
         0         0         0         0         0         0         0         0
         0         0         0         0         0         0         0         0
         0         0         0         0         0         0         0         0
         0         0         0         0         0         0         0         0
         0         0         0         0         0         0         0         0
         0         0         0         0         0         0         0         0
         0         0         0         0         0         0         0         0
         0         0         0         0         0         0         0         0
         0         0         0         0         0         0         0         0
         0         0         0         0         0         0         0         0
         0         0         0         0         0         0         0         0
         0         0         0         0         0         0         0         0
         0         0         0         0         0         0         0         0
         0         0         0         0         0         0         0         0
         0         0         0         0         0         0         0         0
         0         0         0         0         0         0         0         0
         0         0         0         0         0         0         0         0
         0         0         0         0         0         0         0         0
         0         0         0         0         0         0         0         0
         0         0         0         0         0         0         0         0
         0         0         0         0         0         0         0         0
         0         0         0         0         0         0         0         0
         0         0         0         0         0         0         0         0
         0         0         0         0         0         0         0         0
         0         0         0         0         0         0         0         0
         0         0         0         0         0         0         0         0
         0         0         0         0         0         0         0         0
         0         0         0         0         0         0         0         0
         0         0         0         0         0         0         0         0
         0         0         0         0         0         0         0         0
         0         0         0         0         0         0         0         0
         0         0         0         0         0         0         0         0
         0         0         0         0         0         0         0         0
         0         0         0         0         0         0         0         0
         0         0         0         0         0         0         0         0
         0         0         0         0         0         0         0         0
         0         0         0         0         0         0         0         0
         0         0         0         0         0         0         0         0
         0         0         0         0         0         0         0         0
         0         0         0         0         0         0         0         0
         0         0         0         0         0         0         0         0
         0         0         0         0         0         0         0         0
         0         0         0         0         0         0         0         0
         0         0         0         0         0         0         0         0
         0         0         0         0         0         0         0         0
         0         0         0         0         0         0         0         0
         0         0         0         0         0         0         0         0
         0         0         0         0         0         0         0         0
         0         0         0         0         0         0         0         0
         0         0         0         0         0         0         0         0
         0         0         0         0         0         0         0         0
         0         0         0         0         0         0         0         0
         0         0         0         0         0         0         0         0
         0         0         0         0         0         0         0         0
         0         0         0         0         0         0         0         0
         0         0         0         0         0         0         0         0
         0         0         0         0         0         0         0         0
         0         0         0         0         0         0         0         0
         0         0         0         0         0         0         0         0
         0         0         0         0         0         0         0         0
         0         0         0         0         0         0         0         0
         0         0         0         0         0         0         0         0
         0         0         0         0         0         0         0         0
         0         0         0         0         0         0         0         0
         0         0         0         0         0         0         0         0
         0         0         0         0         0         0         0         0
         0         0         0         0         0         0         0         0
         0         0         0         0         0         0         0         0
         0         0         0         0         0         0         0         0
         0         0         0         0         0         0         0         0
         0         0         0         0         0         0         0         0
         0         0         0         0         0         0         0         0
         0         0         0         0         0         0         0         0
         0         0         0         0         0         0         0         0
         0         0         0         0         0         0         0         0
         0         0         0         0         0         0         0         0
         0         0         0         0         0         0         0         0
         0         0         0         0         0         0         0         0
         0         0         0         0         0         0         0         0
         0         0         0         0         0         0         0         0
         0         0         0         0         0         0         0         0
         0         0         0         0         0         0         0         0
         0         0         0         0         0         0         0         0
         0         0         0         0         0         0         0         0
         0         0         0         0         0         0         0         0
         0         0         0         0         0         0         0         0
         0         0         0         0         0         0         0         0
         0         0         0         0         0         0         0         0
         0         0         0         0         0         0         0         0
         0         0         0         0         0         0         0         0
         0         0         0         0         0         0         0         0
         0         0         0         0         0         0         0         0
         0         0         0         0         0         0         0         0
         0         0         0         0         0         0         0         0
         0         0         0         0         0         0         0         0
         0         0         0         0         0         0         0         0
         0         0         0         0         0         0         0         0
         0         0         0         0         0         0         0         0
         0         0         0         0         0         0         0         0
         0         0         0         0         0         0         0         0
         0         0         0         0         0         0         0         0
         0         0         0         0         0         0         0         0
         0         0         0         0         0         0         0         0
         0         0         0         0         0         0         0         0
         0         0         0         0         0         0         0         0
         0         0         0         0         0         0         0         0
         0         0         0         0         0         0         0         0
         0         0         0         0         0         0         0         0
         0         0         0         0         0         0         0         0
         0         0         0         0         0         0         0         0
         0         0         0         0         0         0         0         0
         0         0         0         0         0         0         0         0
         0         0         0         0         0         0         0         0
         0         0         0         0         0         0         0         0
         0         0         0         0         0         0         0         0
         0         0         0         0         0         0         0         0
         0         0         0         0         0         0         0         0
         0         0         0         0         0         0         0         0
         0         0         0         0         0         0         0         0
         0         0         0         0         0         0         0         0
         0         0         0         0         0         0         0         0
         0         0         0         0         0         0         0         0
         0         0         0         0         0         0         0         0
         0         0         0         0         0         0         0         0
         0         0         0         0         0         0         0         0
         0         0         0         0         0         0         0         0
         0         0         0         0         0         0         0         0
         0         0         0         0         0         0         0         0
         0         0         0         0         0         0         0         0
         0         0         0         0         0         0         0         0
         0         0         0         0         0         0         0         0
         0         0         0         0         0         0         0         0
         0         0         0         0         0         0         0         0
         0         0         0         0         0         0         0         0
         0         0         0         0         0         0         0         0
         0         0         0         0         0         0         0         0
         0         0         0         0         0         0         0         0
         0         0         0         0         0         0         0         0
         0         0         0         0         0         0         0         0
         0         0         0         0         0         0         0         0
         0         0         0         0         0         0         0         0
         0         0         0         0         0         0         0         0
         0         0         0         0         0         0         0         0
         0         0         0         0         0         0         0         0
         0         0         0         0         0         0         0         0
         0         0         0         0         0         0         0         0
         0         0         0         0         0         0         0         0
         0         0         0         0         0         0         0         0
         0         0         0         0         0         0         0         0
         0         0         0         0         0         0         0         0
         0         0         0         0         0         0         0         0
         0         0         0         0         0         0         0         0
         0         0         0         0         0         0         0         0
         0         0         0         0         0         0         0         0
         0         0         0         0         0         0         0         0
         0         0         0         0         0         0         0         0
         0         0         0         0         0         0         0         0
         0         0         0         0         0         0         0         0
         0         0         0         0         0         0         0         0
         0         0         0         0         0         0         0         0
         0         0         0         0         0         0         0         0
         0         0         0         0         0         0         0         0
         0         0         0         0         0         0         0         0
         0         0         0         0         0         0         0         0
         0         0         0         0         0         0         0         0
         0         0         0         0         0         0         0         0
         0         0         0         0         0         0         0         0
         0         0         0         0         0         0         0         0
         0         0         0         0         0         0         0         0
         0         0         0         0         0         0         0         0
         0         0         0         0         0         0         0         0
         0         0         0         0         0         0         0         0
         0         0         0         0         0         0         0         0
         0         0         0         0         0         0         0         0
         0         0         0         0         0         0         0         0
         0         0         0         0         0         0         0         0
         0         0         0         0         0         0         0         0
         0         0         0         0         0         0         0         0
         0         0         0         0         0         0         0         0
         0         0         0         0         0         0         0         0
         0         0         0         0         0         0         0         0
         0         0         0         0         0         0         0         0
         0         0         0         0         0         0         0         0
         0         0         0         0         0         0         0         0
         0         0         0         0         0         0         0         0
         0         0         0         0         0         0         0         0
         0         0         0         0         0         0         0         0
         0         0         0         0         0         0         0         0
         0         0         0         0         0         0         0         0
         0         0         0         0         0         0         0         0
         0         0         0         0         0         0         0         0
         0         0         0         0         0         0         0         0
         0         0         0         0         0         0         0         0
         0         0         0         0         0         0         0         0
         0         0         0         0         0         0         0         0
         0         0         0         0         0         0         0         0
         0         0         0         0         0         0         0         0
         0         0         0         0         0         0         0         0
         0         0         0         0         0         0         0         0
         0         0         0         0         0         0         0         0
         0         0         0         0         0         0         0         0
         0         0         0         0         0         0         0         0
         0         0         0         0         0         0         0         0
         0         0         0         0         0         0         0         0
         0         0         0         0         0         0         0         0
         0         0         0         0         0         0         0         0
         0         0         0         0         0         0         0         0
         0         0         0         0         0         0         0         0
         0         0         0         0         0         0         0         0
         0         0         0         0         0         0         0         0
         0         0         0         0         0         0         0         0
         0         0         0         0         0         0         0         0
         0         0         0         0         0         0         0         0
         0         0         0         0         0         0         0         0
         0         0         0         0         0         0         0         0
         0         0         0         0         0         0         0         0
         0         0         0         0         0         0         0         0
         0         0         0         0         0         0         0         0
         0         0         0         0         0         0         0         0
         0         0         0         0         0         0         0         0
         0         0         0         0         0         0         0         0
         0         0         0         0         0         0         0         0
         0         0         0         0         0         0         0         0
         0         0         0         0         0         0         0         0
         0         0         0         0         0         0         0         0
         0         0         0         0         0         0         0         0
         0         0         0         0         0         0         0         0
         0         0         0         0         0         0         0         0
         0         0         0         0         0         0         0         0
         0         0         0         0         0         0         0         0
         0         0         0         0         0         0         0         0
         0         0         0         0         0         0         0         0
         0         0         0         0         0         0         0         0
         0         0         0         0         0         0         0         0
         0         0         0         0         0         0         0         0
         0         0         0         0         0         0         0         0
         0         0         0         0         0         0         0         0
         0         0         0         0         0         0         0         0
         0         0         0         0         0         0         0         0
         0         0         0         0         0         0         0         0
         0         0         0         0         0         0         0         0
         0         0         0         0         0         0         0         0
         0         0         0         0         0         0         0         0
         0         0         0         0         0         0         0         0
         0         0         0         0         0         0         0         0
         0         0         0         0         0         0         0         0
         0         0         0         0         0         0         0         0
         0         0         0         0         0         0         0         0
         0         0         0         0         0         0         0         0
         0         0         0         0         0         0         0         0
         0         0         0         0         0         0         0         0
         0         0         0         0         0         0         0         0
         0         0         0         0         0         0         0         0
         0         0         0         0         0         0         0         0
         0         0         0         0         0         0         0         0
         0         0         0         0         0         0         0         0
         0         0         0         0         0         0         0         0
         0         0         0         0         0         0         0         0
         0         0         0         0         0         0         0         0
         0         0         0         0         0         0         0         0
         0         0         0         0         0         0         0         0
         0         0         0         0         0         0         0         0
         0         0         0         0         0         0         0         0
         0         0         0         0         0         0         0         0
         0         0         0         0         0         0         0         0
         0         0         0         0         0         0         0         0
         0         0         0         0         0         0         0         0
         0         0         0         0         0         0         0         0
         0         0         0         0         0         0         0         0
         0         0         0         0         0         0         0         0
         0         0         0         0         0         0         0         0
         0         0         0         0         0         0         0         0
         0         0         0         0         0         0         0         0
         0         0         0         0         0         0         0         0
         0         0         0         0         0         0         0         0
         0         0         0         0         0         0         0         0
         0         0         0         0         0         0         0         0
         0         0         0         0         0         0         0         0
         0         0         0         0         0         0         0         0
         0         0         0         0         0         0         0         0
         0         0         0         0         0         0         0         0
         0         0         0         0         0         0         0         0
         0         0         0         0         0         0         0         0
         0         0         0         0         0         0         0         0
         0         0         0         0         0         0         0         0
         0         0         0         0         0         0         0         0
         0         0         0         0         0         0         0         0
         0         0         0         0         0         0         0         0
         0         0         0         0         0         0         0         0
         0         0         0         0         0         0         0         0
         0         0         0         0         0         0         0         0
         0         0         0         0         0         0         0         0
         0         0         0         0         0         0         0         0
         0         0         0         0         0         0         0         0
         0         0         0         0         0         0         0         0
         0         0         0         0         0         0         0         0
         0         0         0         0         0         0         0         0
         0         0         0         0         0         0         0         0
         0         0         0         0         0         0         0         0
         0         0         0         0         0         0         0         0
         0         0         0         0         0         0         0         0
         0         0         0         0         0         0         0         0
         0         0         0         0         0         0         0         0
         0         0         0         0         0         0         0         0
         0         0         0         0         0         0         0         0
         0         0         0         0         0         0         0         0
         0         0         0         0         0         0         0         0
         0         0         0         0         0         0         0         0
         0         0         0         0         0         0         0         0
         0         0         0         0         0         0         0         0
         0         0         0         0         0         0         0         0
         0         0         0         0         0         0         0         0
         0         0         0         0         0         0         0         0
         0         0         0         0         0         0         0         0
         0         0         0         0         0         0         0         0
         0         0         0         0         0         0         0         0
         0         0         0         0         0         0         0         0
         0         0         0         0         0         0         0         0
         0         0         0         0         0         0         0         0
         0         0         0         0         0         0         0         0
         0         0         0         0         0         0         0         0
         0         0         0         0         0         0         0         0
         0         0         0         0         0         0         0         0
         0         0         0         0         0         0         0         0
         0         0         0         0         0         0         0         0
         0         0         0         0         0         0         0         0
         0         0         0         0         0         0         0         0
         0         0         0         0         0         0         0         0
         0         0         0         0         0         0         0         0
         0         0         0         0         0         0         0         0
         0         0         0         0         0         0         0         0
         0         0         0         0         0         0         0         0
         0         0         0         0         0         0         0         0
         0         0         0         0         0         0         0         0
         0         0         0         0         0         0         0         0
         0         0         0         0         0         0         0         0
         0         0         0         0         0         0         0         0
         0         0         0         0         0         0         0         0
         0         0         0         0         0         0         0         0
         0         0         0         0         0         0         0         0
         0         0         0         0         0         0         0         0
         0         0         0         0         0         0         0         0
         0         0         0         0         0         0         0         0
         0         0         0         0         0         0         0         0
         0         0         0         0         0         0         0         0
         0         0         0         0         0         0         0         0
         0         0         0         0         0         0         0         0
         0         0         0         0         0         0         0         0
         0         0         0         0         0         0         0         0
         0         0         0         0         0         0         0         0
         0         0         0         0         0         0         0         0
         0         0         0         0         0         0         0         0
         0         0         0         0         0         0         0         0
         0         0         0         0         0         0         0         0
         0         0         0         0         0         0         0         0
         0         0         0         0         0         0         0         0
         0         0         0         0         0         0         0         0
         0         0         0         0         0         0         0         0
         0         0         0         0         0         0         0         0
         0         0         0         0         0         0         0         0
         0         0         0         0         0         0         0         0
         0         0         0         0         0         0         0         0
         0         0         0         0         0         0         0         0
         0         0         0         0         0         0         0         0
         0         0         0         0         0         0         0         0
         0         0         0         0         0         0         0         0
         0         0         0         0         0         0         0         0
         0         0         0         0         0         0         0         0
         0         0         0         0         0         0         0         0
         0         0         0         0         0         0         0         0
         0         0         0         0         0         0         0         0
         0         0         0         0         0         0         0         0
         0         0         0         0         0         0         0         0
         0         0         0         0         0         0         0         0
         0         0         0         0         0         0         0         0
         0         0         0         0         0         0         0         0
         0         0         0         0         0         0         0         0
         0         0         0         0         0         0         0         0
         0         0         0         0         0         0         0         0
         0         0         0         0         0         0         0         0
         0         0         0         0         0         0         0         0
         0         0         0         0         0         0         0         0
         0         0         0         0         0         0         0         0
         0         0         0         0         0         0         0         0
         0         0         0         0         0         0         0         0
         0         0         0         0         0         0         0         0
         0         0         0         0         0         0         0         0
         0         0         0         0         0         0         0         0
         0         0         0         0         0         0         0         0
         0         0         0         0         0         0         0         0
         0         0         0         0         0         0         0         0
         0         0         0         0         0         0         0         0
         0         0         0         0         0         0         0         0
         0         0         0         0         0         0         0         0
         0         0         0         0         0         0         0         0
         0         0         0         0         0         0         0         0
         0         0         0         0         0         0         0         0
         0         0         0         0         0         0         0         0
         0         0         0         0         0         0         0         0
         0         0         0         0         0         0         0         0
         0         0         0         0         0         0         0         0
         0         0         0         0         0         0         0         0
         0         0         0         0         0         0         0         0
         0         0         0         0         0         0         0         0
         0         0         0         0         0         0         0         0
         0         0         0         0         0         0         0         0
         0         0         0         0         0         0         0         0
         0         0         0         0         0         0         0         0
         0         0         0         0         0         0         0         0
         0         0         0         0         0         0         0         0
         0         0         0         0         0         0         0         0
         0         0         0         0         0         0         0         0
         0         0         0         0         0         0         0         0
         0         0         0         0         0         0         0         0
         0         0         0         0         0         0         0         0
         0         0         0         0         0         0         0         0
         0         0         0         0         0         0         0         0
         0         0         0         0         0         0         0         0
         0         0         0         0         0         0         0         0
         0         0         0         0         0         0         0         0
         0         0         0         0         0         0         0         0
         0         0         0         0         0         0         0         0
         0         0         0         0         0         0         0         0
         0         0         0         0         0         0         0         0
         0         0         0         0         0         0         0         0
         0         0         0         0         0         0         0         0
         0         0         0         0         0         0         0         0
         0         0         0         0         0         0         0         0
         0         0         0         0         0         0         0         0
         0         0         0         0         0         0         0         0
         0         0         0         0         0         0         0         0
         0         0         0         0         0         0         0         0
         0         0         0         0         0         0         0         0
         0         0         0         0         0         0         0         0
         0         0         0         0         0         0         0         0
         0         0         0         0         0         0         0         0
         0         0         0         0         0         0         0         0
         0         0         0         0         0         0         0         0
         0         0         0         0         0         0         0         0
         0         0         0         0         0         0         0         0
         0         0         0         0         0         0         0         0
         0         0         0         0         0         0         0         0
         0         0         0         0         0         0         0         0
         0         0         0         0         0         0         0         0
         0         0         0         0         0         0         0         0
         0         0         0         0         0         0         0         0
         0         0         0         0         0         0         0         0
         0         0         0         0         0         0         0         0
         0         0         0         0         0         0         0         0
         0         0         0         0         0         0         0         0
         0         0         0         0         0         0         0         0
         0         0         0         0         0         0         0         0
         0         0         0         0         0         0         0         0
         0         0         0         0         0         0         0         0
         0         0         0         0         0         0         0         0
         0         0         0         0         0         0         0         0
         0         0         0         0         0         0         0         0
         0         0         0         0         0         0         0         0
         0         0         0         0         0         0         0         0
         0         0         0         0         0         0         0         0
         0         0         0         0         0         0         0         0
         0         0         0         0         0         0         0         0
         0         0         0         0         0         0         0         0
         0         0         0         0         0         0         0         0
         0         0         0         0         0         0         0         0
         0         0         0         0         0         0         0         0
         0         0         0         0         0         0         0         0
         0         0         0         0         0         0         0         0
         0         0         0         0         0         0         0         0
         0         0         0         0         0         0         0         0
         0         0         0         0         0         0         0         0
         0         0         0         0         0         0         0         0
         0         0         0         0         0         0         0         0
         0         0         0         0         0         0         0         0
         0         0         0         0         0         0         0         0
         0         0         0         0         0         0         0         0
         0         0         0         0         0         0         0         0
         0         0         0         0         0         0         0         0
         0         0         0         0         0         0         0         0
         0         0         0         0         0         0         0         0
         0         0         0         0         0         0         0         0
         0         0         0         0         0         0         0         0
         0         0         0         0         0         0         0         0
         0         0         0         0         0         0         0         0
         0         0         0         0         0         0         0         0
         0         0         0         0         0         0         0         0
         0         0         0         0         0         0         0         0
         0         0         0         0         0         0         0         0
         0         0         0         0         0         0         0         0
         0         0         0         0         0         0         0         0
         0         0         0         0         0         0         0         0
         0         0         0         0         0         0         0         0
         0         0         0         0         0         0         0         0
         0         0         0         0         0         0         0         0
         0         0         0         0         0         0         0         0
         0         0         0         0         0         0         0         0
         0         0         0         0         0         0         0         0
         0         0         0         0         0         0         0         0
         0         0         0         0         0         0         0         0
         0         0         0         0         0         0         0         0
         0         0         0         0         0         0         0         0
         0         0         0         0         0         0         0         0
         0         0         0         0         0         0         0         0
         0         0         0         0         0         0         0         0
         0         0         0         0         0         0         0         0
         0         0         0         0         0         0         0         0
         0         0         0         0         0         0         0         0
         0         0         0         0         0         0         0         0
         0         0         0         0         0         0         0         0
         0         0         0         0         0         0         0         0
         0         0         0         0         0         0         0         0
         0         0         0         0         0         0         0         0
         0         0         0         0         0         0         0         0
         0         0         0         0         0         0         0         0
         0         0         0         0         0         0         0         0
         0         0         0         0         0         0         0         0
         0         0         0         0         0         0         0         0
         0         0         0         0         0         0         0         0
         0         0         0         0         0         0         0         0
         0         0         0         0         0         0         0         0
         0         0         0         0         0         0         0         0
         0         0         0         0         0         0         0         0
         0         0         0         0         0         0         0         0
         0         0         0         0         0         0         0         0
         0         0         0         0         0         0         0         0
         0         0         0         0         0         0         0         0
         0         0         0         0         0         0         0         0
         0         0         0         0         0         0         0         0
         0         0         0         0         0         0         0         0
         0         0         0         0         0         0         0         0
         0         0         0         0         0         0         0         0
         0         0         0         0         0         0         0         0
         0         0         0         0         0         0         0         0
         0         0         0         0         0         0         0         0
         0         0         0         0         0         0         0         0
         0         0         0         0         0         0         0         0
         0         0         0         0         0         0         0         0
         0         0         0         0         0         0         0         0
         0         0         0         0         0         0         0         0
         0         0         0         0         0         0         0         0
         0         0         0         0         0         0         0         0
         0         0         0         0         0         0         0         0
         0         0         0         0         0         0         0         0
         0         0         0         0         0         0         0         0
         0         0         0         0         0         0         0         0
         0         0         0         0         0         0         0         0
         0         0         0         0         0         0         0         0
         0         0         0         0         0         0         0         0
         0         0         0         0         0         0         0         0
         0         0         0         0         0         0         0         0
         0         0         0         0         0         0         0         0
         0         0         0         0         0         0         0         0
         0         0         0         0         0         0         0         0
         0         0         0         0         0         0         0         0
         0         0         0         0         0         0         0         0
         0         0         0         0         0         0         0         0
         0         0         0         0         0         0         0         0
         0         0         0         0         0         0         0         0
         0         0         0         0         0         0         0         0
         0         0         0         0         0         0         0         0
         0         0         0         0         0         0         0         0
         0         0         0         0         0         0         0         0
         0         0         0         0         0         0         0         0
         0         0         0         0         0         0         0         0
         0         0         0         0         0         0         0         0
         0         0         0         0         0         0         0         0
         0         0         0         0         0         0         0         0
         0         0         0         0         0         0         0         0
         0         0         0         0         0         0         0         0
         0         0         0         0         0         0         0         0
         0         0         0         0         0         0         0         0
         0         0         0         0         0         0         0         0
         0         0         0         0         0         0         0         0
         0         0         0         0         0         0         0         0
         0         0         0         0         0         0         0         0
         0         0         0         0         0         0         0         0
         0         0         0         0         0         0         0         0
         0         0         0         0         0         0         0         0
         0         0         0         0         0         0         0         0
         0         0         0         0         0         0         0         0
         0         0         0         0         0         0         0         0
         0         0         0         0         0         0         0         0
         0         0         0         0         0         0         0         0
         0         0         0         0         0         0         0         0
         0         0         0         0         0         0         0         0
         0         0         0         0         0         0         0         0
         0         0         0         0         0         0         0         0
         0         0         0         0         0         0         0         0
         0         0         0         0         0         0         0         0
         0         0         0         0         0         0         0         0
         0         0         0         0         0         0         0         0
         0         0         0         0         0         0         0         0
         0         0         0         0         0         0         0         0
         0         0         0         0         0         0         0         0
         0         0         0         0         0         0         0         0
         0         0         0         0         0         0         0         0
         0         0         0         0         0         0         0         0
         0         0         0         0         0         0         0         0
         0         0         0         0         0         0         0         0
         0         0         0         0         0         0         0         0
         0         0         0         0         0         0         0         0
         0         0         0         0         0         0         0         0
         0         0         0         0         0         0         0         0
         0         0         0         0         0         0         0         0
         0         0         0         0         0         0         0         0
         0         0         0         0         0         0         0         0
         0         0         0         0         0         0         0         0
         0         0         0         0         0         0         0         0
         0         0         0         0         0         0         0         0
         0         0         0         0         0         0         0         0
         0         0         0         0         0         0         0         0
         0         0         0         0         0         0         0         0
         0         0         0         0         0         0         0         0
         0         0         0         0         0         0         0         0
         0         0         0         0         0         0         0         0
         0         0         0         0         0         0         0         0
         0         0         0         0         0         0         0         0
         0         0         0         0         0         0         0         0
         0         0         0         0         0         0         0         0
         0         0         0         0         0         0         0         0
         0         0         0         0         0         0         0         0
         0         0         0         0         0         0         0         0
         0         0         0         0         0         0         0         0
         0         0         0         0         0         0         0         0
         0         0         0         0         0         0         0         0
         0         0         0         0         0         0         0         0
         0         0         0         0         0         0         0         0
         0         0         0         0         0         0         0         0
         0         0         0         0         0         0         0         0
         0         0         0         0         0         0         0         0
         0         0         0         0         0         0         0         0
         0         0         0         0         0         0         0         0
         0         0         0         0         0         0         0         0
         0         0         0         0         0         0         0         0
         0         0         0         0         0         0         0         0
         0         0         0         0         0         0         0         0
         0         0         0         0         0         0         0         0
         0         0         0         0         0         0         0         0
         0         0         0         0         0         0         0         0
         0         0         0         0         0         0         0         0
         0         0         0         0         0         0         0         0
         0         0         0         0         0         0         0         0
         0         0         0         0         0         0         0         0
         0         0         0         0         0         0         0         0
         0         0         0         0         0         0         0         0
         0         0         0         0         0         0         0         0
         0         0         0         0         0         0         0         0
         0         0         0         0         0         0         0         0
         0         0         0         0         0         0         0         0
         0         0         0         0         0         0         0         0
         0         0         0         0         0         0         0         0
         0         0         0         0         0         0         0         0
         0         0         0         0         0         0         0         0
         0         0         0         0         0         0         0         0
         0         0         0         0         0         0         0         0
         0         0         0         0         0         0         0         0
         0         0         0         0         0         0         0         0
         0         0         0         0         0         0         0         0
         0         0         0         0         0         0         0         0
         0         0         0         0         0         0         0         0
         0         0         0         0         0         0         0         0
         0         0         0         0         0         0         0         0
         0         0         0         0         0         0         0         0
         0         0         0         0         0         0         0         0
         0         0         0         0         0         0         0         0
         0         0         0         0         0         0         0         0
         0         0         0         0         0         0         0         0
         0         0         0         0         0         0         0         0
         0         0         0         0         0         0         0         0
         0         0         0         0         0         0         0         0
         0         0         0         0         0         0         0         0
         0         0         0         0         0         0         0         0
         0         0         0         0         0         0         0         0
         0         0         0         0         0         0         0         0
         0         0         0         0         0         0         0         0
         0         0         0         0         0         0         0         0
         0         0         0         0         0         0         0         0
         0         0         0         0         0         0         0         0
         0         0         0         0         0         0         0         0
         0         0         0         0         0         0         0         0
         0         0         0         0         0         0         0         0
         0         0         0         0         0         0         0         0
         0         0         0         0         0         0         0         0
         0         0         0         0         0         0         0         0
         0         0         0         0         0         0         0         0
         0         0         0         0         0         0         0         0
         0         0         0         0         0         0         0         0
         0         0         0         0         0         0         0         0
         0         0         0         0         0         0         0         0
         0         0         0         0         0         0         0         0
         0         0         0         0         0         0         0         0
         0         0         0         0         0         0         0         0
         0         0         0         0         0         0         0         0
         0         0         0         0         0         0         0         0
         0         0         0         0         0         0         0         0
         0         0         0         0         0         0         0         0
         0         0         0         0         0         0         0         0
         0         0         0         0         0         0         0         0
         0         0         0         0         0         0         0         0
         0         0         0         0         0         0         0         0
         0         0         0         0         0         0         0         0
         0         0         0         0         0         0         0         0
         0         0         0         0         0         0         0         0
         0         0         0         0         0         0         0         0
         0         0         0         0         0         0         0         0
         0         0         0         0         0         0         0         0
         0         0         0         0         0         0         0         0
         0         0         0         0         0         0         0         0
         0         0         0         0         0         0         0         0
         0         0         0         0         0         0         0         0
         0         0         0         0         0         0         0         0
         0         0         0         0         0         0         0         0
         0         0         0         0         0         0         0         0
         0         0         0         0         0         0         0         0
         0         0         0         0         0         0         0         0
         0         0         0         0         0         0         0         0
         0         0         0         0         0         0         0         0
         0         0         0         0         0         0         0         0
         0         0         0         0         0         0         0         0
         0         0         0         0         0         0         0         0
         0         0         0         0         0         0         0         0
         0         0         0         0         0         0         0         0
         0         0         0         0         0         0         0         0
         0         0         0         0         0         0         0         0
         0         0         0         0         0         0         0         0
         0         0         0         0         0         0         0         0
         0         0         0         0         0         0         0         0
         0         0         0         0         0         0         0         0
         0         0         0         0         0         0         0         0
         0         0         0         0         0         0         0         0
         0         0         0         0         0         0         0         0
         0         0         0         0         0         0         0         0
         0         0         0         0         0         0         0         0
         0         0         0         0         0         0         0         0
         0         0         0         0         0         0         0         0
         0         0         0         0         0         0         0         0
         0         0         0         0         0         0         0         0
         0         0         0         0         0         0         0         0
         0         0         0         0         0         0         0         0
         0         0         0         0         0         0         0         0
         0         0         0         0         0         0         0         0
         0         0         0         0         0         0         0         0
         0         0         0         0         0         0         0         0
         0         0         0         0         0         0         0         0
         0         0         0         0         0         0         0         0
         0         0         0         0         0         0         0         0
         0         0         0         0         0         0         0         0
         0         0         0         0         0         0         0         0
         0         0         0         0         0         0         0         0
         0         0         0         0         0         0         0         0
         0         0         0         0         0         0         0         0
         0         0         0         0         0         0         0         0
         0         0         0         0         0         0         0         0
         0         0         0         0         0         0         0         0
         0         0         0         0         0         0         0         0
         0         0         0         0         0         0         0         0
         0         0         0         0         0         0         0         0
         0         0         0         0         0         0         0         0
         0         0         0         0         0         0         0         0
         0         0         0         0         0         0         0         0
         0         0         0         0         0         0         0         0
         0         0         0         0         0         0         0         0
         0         0         0         0         0         0         0         0
         0         0         0         0         0         0         0         0
         0         0         0         0         0         0         0         0
         0         0         0         0         0         0         0         0
         0         0         0         0         0         0         0         0
         0         0         0         0         0         0         0         0
         0         0         0         0         0         0         0         0
         0         0         0         0         0         0         0         0
         0         0         0         0         0         0         0         0
         0         0         0         0         0         0         0         0
         0         0         0         0         0         0         0         0
         0         0         0         0         0         0         0         0
         0         0         0         0         0         0         0         0
         0         0         0         0         0         0         0         0
         0         0         0         0         0         0         0         0
         0         0         0         0         0         0         0         0
         0         0         0         0         0         0         0         0
         0         0         0         0         0         0         0         0
         0         0         0         0         0         0         0         0
         0         0         0         0         0         0         0         0
         0         0         0         0         0         0         0         0
         0         0         0         0         0         0         0         0
         0         0         0         0         0         0         0         0
         0         0         0         0         0         0         0         0
         0         0         0         0         0         0         0         0
         0         0         0         0         0         0         0         0
         0         0         0         0         0         0         0         0
         0         0         0         0         0         0         0         0
         0         0         0         0         0         0         0         0
         0         0         0         0         0         0         0         0
         0         0         0         0         0         0         0         0
         0         0         0         0         0         0         0         0
         0         0         0         0         0         0         0         0
         0         0         0         0         0         0         0         0
         0         0         0         0         0         0         0         0
         0         0         0         0         0         0         0         0
         0         0         0         0         0         0         0         0
         0         0         0         0         0         0         0         0
         0         0         0         0         0         0         0         0
         0         0         0         0         0         0         0         0
         0         0         0         0         0         0         0         0
         0         0         0         0         0         0         0         0
         0         0         0         0         0         0         0         0
         0         0         0         0         0         0         0         0
         0         0         0         0         0         0         0         0
         0         0         0         0         0         0         0         0
         0         0         0         0         0         0         0         0
         0         0         0         0         0         0         0         0
         0         0         0         0         0         0         0         0
         0         0         0         0         0         0         0         0
         0         0         0         0         0         0         0         0
         0         0         0         0         0         0         0         0
         0         0         0         0         0         0         0         0
         0         0         0         0         0         0         0         0
         0         0         0         0         0         0         0         0
         0         0         0         0         0         0         0         0
         0         0         0         0         0         0         0         0
         0         0         0         0         0         0         0         0
         0         0         0         0         0         0         0         0
         0         0         0         0         0         0         0         0
         0         0         0         0         0         0         0         0
         0         0         0         0         0         0         0         0
         0         0         0         0         0         0         0         0
         0         0         0         0         0         0         0         0
         0         0         0         0         0         0         0         0
         0         0         0         0         0         0         0         0
         0         0         0         0         0         0         0         0
         0         0         0         0         0         0         0         0
         0         0         0         0         0         0         0         0
         0         0         0         0         0         0         0         0
         0         0         0         0         0         0         0         0
         0         0         0         0         0         0         0         0
         0         0         0         0         0         0         0         0
         0         0         0         0         0         0         0         0
         0         0         0         0         0         0         0         0
         0         0         0         0         0         0         0         0
         0         0         0         0         0         0         0         0
         0         0         0         0         0         0         0         0
         0         0         0         0         0         0         0         0
         0         0         0         0         0         0         0         0
         0         0         0         0         0         0         0         0
         0         0         0         0         0         0         0         0
         0         0         0         0         0         0         0         0
         0         0         0         0         0         0         0         0
         0         0         0         0         0         0         0         0
         0         0         0         0         0         0         0         0
         0         0         0         0         0         0         0         0
         0         0         0         0         0         0         0         0
         0         0         0         0         0         0         0         0
         0         0         0         0         0         0         0         0
         0         0         0         0         0         0         0         0
         0         0         0         0         0         0         0         0
         0         0         0         0         0         0         0         0
         0         0         0         0         0         0         0         0
         0         0         0         0         0         0         0         0
         0         0         0         0         0         0         0         0
         0         0         0         0         0         0         0         0
         0         0         0         0         0         0         0         0
         0         0         0         0         0         0         0         0
         0         0         0         0         0         0         0         0
         0         0         0         0         0         0         0         0
         0         0         0         0         0         0         0         0
         0         0         0         0         0         0         0         0
         0         0         0         0         0         0         0         0
         0         0         0         0         0         0         0         0
         0         0         0         0         0         0         0         0
         0         0         0         0         0         0         0         0
         0         0         0         0         0         0         0         0
         0         0         0         0         0         0         0         0
         0         0         0         0         0         0         0         0
         0         0         0         0         0         0         0         0
         0         0         0         0         0         0         0         0
         0         0         0         0         0         0         0         0
         0         0         0         0         0         0         0         0
         0         0         0         0         0         0         0         0
         0         0         0         0         0         0         0         0
         0         0         0         0         0         0         0         0
         0         0         0         0         0         0         0         0
         0         0         0         0         0         0         0         0
         0         0         0         0         0         0         0         0
         0         0         0         0         0         0         0         0
         0         0         0         0         0         0         0         0
         0         0         0         0         0         0         0         0
         0         0         0         0         0         0         0         0
         0         0         0         0         0         0         0         0
         0         0         0         0         0         0         0         0
         0         0         0         0         0         0         0         0
         0         0         0         0         0         0         0         0
         0         0         0         0         0         0         0         0
         0         0         0         0         0         0         0         0
         0         0         0         0         0         0         0         0
         0         0         0         0         0         0         0         0
         0         0         0         0         0         0         0         0
         0         0         0         0         0         0         0         0
         0         0         0         0         0         0         0         0
         0         0         0         0         0         0         0         0
         0         0         0         0         0         0         0         0
         0         0         0         0         0         0         0         0
         0         0         0         0         0         0         0         0
         0         0         0         0         0         0         0         0
         0         0         0         0         0         0         0         0
         0         0         0         0         0         0         0         0
         0         0         0         0         0         0         0         0
         0         0         0         0         0         0         0         0
         0         0         0         0         0         0         0         0
         0         0         0         0         0         0         0         0
         0         0         0         0         0         0         0         0
         0         0         0         0         0         0         0         0
         0         0         0         0         0         0         0         0
         0         0         0         0         0         0         0         0
         0         0         0         0         0         0         0         0
         0         0         0         0         0         0         0         0
         0         0         0         0         0         0         0         0
         0         0         0         0         0         0         0         0
         0         0         0         0         0         0         0         0
         0         0         0         0         0         0         0         0
         0         0         0         0         0         0         0         0
         0         0         0         0         0         0         0         0
         0         0         0         0         0         0         0         0
         0         0         0         0         0         0         0         0
         0         0         0         0         0         0         0         0
         0         0         0         0         0         0         0         0
         0         0         0         0         0         0         0         0
         0         0         0         0         0         0         0         0
         0         0         0         0         0         0         0         0
         0         0         0         0         0         0         0         0
         0         0         0         0         0         0         0         0
         0         0         0         0         0         0         0         0
         0         0         0         0         0         0         0         0
         0         0         0         0         0         0         0         0
         0         0         0         0         0         0         0         0
         0         0         0         0         0         0         0         0
         0         0         0         0         0         0         0         0
         0         0         0         0         0         0         0         0
         0         0         0         0         0         0         0         0
         0         0         0         0         0         0         0         0
         0         0         0         0         0         0         0         0
         0         0         0         0         0         0         0         0
         0         0         0         0         0         0         0         0
         0         0         0         0         0         0         0         0
         0         0         0         0         0         0         0         0
         0         0         0         0         0         0         0         0
         0         0         0         0         0         0         0         0
         0         0         0         0         0         0         0         0
         0         0         0         0         0         0         0         0
         0         0         0         0         0         0         0         0
         0         0         0         0         0         0         0         0
         0         0         0         0         0         0         0         0
         0         0         0         0         0         0         0         0
         0         0         0         0         0         0         0         0
         0         0         0         0         0         0         0         0
         0         0         0         0         0         0         0         0
         0         0         0         0         0         0         0         0
         0         0         0         0         0         0         0         0
         0         0         0         0         0         0         0         0
         0         0         0         0         0         0         0         0
         0         0         0         0         0         0         0         0
         0         0         0         0         0         0         0         0
         0         0         0         0         0         0         0         0
         0         0         0         0         0         0         0         0
         0         0         0         0         0         0         0         0
         0         0         0         0         0         0         0         0
         0         0         0         0         0         0         0         0
         0         0         0         0         0         0         0         0
         0         0         0         0         0         0         0         0
         0         0         0         0         0         0         0         0
         0         0         0         0         0         0         0         0
         0         0         0         0         0         0         0         0
         0         0         0         0         0         0         0         0
         0         0         0         0         0         0         0         0
         0         0         0         0         0         0         0         0
         0         0         0         0         0         0         0         0
         0         0         0         0         0         0         0         0
         0         0         0         0         0         0         0         0
         0         0         0         0         0         0         0         0
         0         0         0         0         0         0         0         0
         0         0         0         0         0         0         0         0
         0         0         0         0         0         0         0         0
         0         0         0         0         0         0         0         0
         0         0         0         0         0         0         0         0
         0         0         0         0         0         0         0         0
         0         0         0         0         0         0         0         0
         0         0         0         0         0         0         0         0
         0         0         0         0         0         0         0         0
         0         0         0         0         0         0         0         0
         0         0         0         0         0         0         0         0
         0         0         0         0         0         0         0         0
         0         0         0         0         0         0         0         0
         0         0         0         0         0         0         0         0
         0         0         0         0         0         0         0         0
         0         0         0         0         0         0         0         0
         0         0         0         0         0         0         0         0
         0         0         0         0         0         0         0         0
         0         0         0         0         0         0         0         0
         0         0         0         0         0         0         0         0
         0         0         0         0         0         0         0         0
         0         0         0         0         0         0         0         0
         0         0         0         0         0         0         0         0
         0         0         0         0         0         0         0         0
         0         0         0         0         0         0         0         0
         0         0         0         0         0         0         0         0
         0         0         0         0         0         0         0         0
         0         0         0         0         0         0         0         0
         0         0         0         0         0         0         0         0
         0         0         0         0         0         0         0         0
         0         0         0         0         0         0         0         0
         0         0         0         0         0         0         0         0
         0         0         0         0         0         0         0         0
         0         0         0         0         0         0         0         0
         0         0         0         0         0         0         0         0
         0         0         0         0         0         0         0         0
         0         0         0         0         0         0         0         0
         0         0         0         0         0         0         0         0
         0         0         0         0         0         0         0         0
         0         0         0         0         0         0         0         0
         0         0         0         0         0         0         0         0
         0         0         0         0         0         0         0         0
         0         0         0         0         0         0         0         0
         0         0         0         0         0         0         0         0
         0         0         0         0         0         0         0         0
         0         0         0         0         0         0         0         0
         0         0         0         0         0         0         0         0
         0         0         0         0         0         0         0         0
         0         0         0         0         0         0         0         0
         0         0         0         0         0         0         0         0
         0         0         0         0         0         0         0         0
         0         0         0         0         0         0         0         0
         0         0         0         0         0         0         0         0
         0         0         0         0         0         0         0         0
         0         0         0         0         0         0         0         0
         0         0         0         0         0         0         0         0
         0         0         0         0         0         0         0         0
         0         0         0         0         0         0         0         0
         0         0         0         0         0         0         0         0
         0         0         0         0         0         0         0         0
         0         0         0         0         0         0         0         0
         0         0         0         0         0         0         0         0
         0         0         0         0         0         0         0         0
         0         0         0         0         0         0         0         0
         0         0         0         0         0         0         0         0
         0         0         0         0         0         0         0         0
         0         0         0         0         0         0         0         0
         0         0         0         0         0         0         0         0
         0         0         0         0         0         0         0         0
         0         0         0         0         0         0         0         0
         0         0         0         0         0         0         0         0
         0         0         0         0         0         0         0         0
         0         0         0         0         0         0         0         0
         0         0         0         0         0         0         0         0
         0         0         0         0         0         0         0         0
         0         0         0         0         0         0         0         0
         0         0         0         0         0         0         0         0
         0         0         0         0         0         0         0         0
         0         0         0         0         0         0         0         0
         0         0         0         0         0         0         0         0
         0         0         0         0         0         0         0         0
         0         0         0         0         0         0         0         0
         0         0         0         0         0         0         0         0
         0         0         0         0         0         0         0         0
         0         0         0         0         0         0         0         0
         0         0         0         0         0         0         0         0
         0         0         0         0         0         0         0         0
         0         0         0         0         0         0         0         0
         0         0         0         0         0         0         0         0
         0         0         0         0         0         0         0         0
         0         0         0         0         0         0         0         0
         0         0         0         0         0         0         0         0
         0         0         0         0         0         0         0         0
         0         0         0         0         0         0         0         0
         0         0         0         0         0         0         0         0
         0         0         0         0         0         0         0         0
         0         0         0         0         0         0         0         0
         0         0         0         0         0         0         0         0
         0         0         0         0         0         0         0         0
         0         0         0         0         0         0         0         0
         0         0         0         0         0         0         0         0
         0         0         0         0         0         0         0         0
         0         0         0         0         0         0         0         0
         0         0         0         0         0         0         0         0
         0         0         0         0         0         0         0         0
         0         0         0         0         0         0         0         0
         0         0         0         0         0         0         0         0
         0         0         0         0         0         0         0         0
         0         0         0         0         0         0         0         0
         0         0         0         0         0         0         0         0
         0         0         0         0         0         0         0         0
         0         0         0         0         0         0         0         0
         0         0         0         0         0         0         0         0
         0         0         0         0         0         0         0         0
         0         0         0         0         0         0         0         0
         0         0         0         0         0         0         0         0
         0         0         0         0         0         0         0         0
         0         0         0         0         0         0         0         0
         0         0         0         0         0         0         0         0
         0         0         0         0         0         0         0         0
         0         0         0         0         0         0         0         0
         0         0         0         0         0         0         0         0
         0         0         0         0         0         0         0         0
         0         0         0         0         0         0         0         0
         0         0         0         0         0         0         0         0
         0         0         0         0         0         0         0         0
         0         0         0         0         0         0         0         0
         0         0         0         0         0         0         0         0
         0         0         0         0         0         0         0         0
         0         0         0         0         0         0         0         0
         0         0         0         0         0         0         0         0
         0         0         0         0         0         0         0         0
         0         0         0         0         0         0         0         0
         0         0         0         0         0         0         0         0
         0         0         0         0         0         0         0         0
         0         0         0         0         0         0         0         0
         0         0         0         0         0         0         0         0
         0         0         0         0         0         0         0         0
         0         0         0         0         0         0         0         0
         0         0         0         0         0         0         0         0
         0         0         0         0         0         0         0         0
         0         0         0         0         0         0         0         0
         0         0         0         0         0         0         0         0
         0         0         0         0         0         0         0         0
         0         0         0         0         0         0         0         0
         0         0         0         0         0         0         0         0
         0         0         0         0         0         0         0         0
         0         0         0         0         0         0         0         0
         0         0         0         0         0         0         0         0
         0         0         0         0         0         0         0         0
         0         0         0         0         0         0         0         0
         0         0         0         0         0         0         0         0
         0         0         0         0         0         0         0         0
         0         0         0         0         0         0         0         0
         0         0         0         0         0         0         0         0
         0         0         0         0         0         0         0         0
         0         0         0         0         0         0         0         0
         0         0         0         0         0         0         0         0
         0         0         0         0         0         0         0         0
         0         0         0         0         0         0         0         0
         0         0         0         0         0         0         0         0
         0         0         0         0         0         0         0         0
         0         0         0         0         0         0         0         0
         0         0         0         0         0         0         0         0
         0         0         0         0         0         0         0         0
         0         0         0         0         0         0         0         0
         0         0         0         0         0         0         0         0
         0         0         0         0         0         0         0         0
         0         0         0         0         0         0         0         0
         0         0         0         0         0         0         0         0
         0         0         0         0         0         0         0         0
         0         0         0         0         0         0         0         0
         0         0         0         0         0         0         0         0
         0         0         0         0         0         0         0         0
         0         0         0         0         0         0         0         0
         0         0         0         0         0         0         0         0
         0         0         0         0         0         0         0         0
         0         0         0         0         0         0         0         0
         0         0         0         0         0         0         0         0
         0         0         0         0         0         0         0         0
         0         0         0         0         0         0         0         0
         0         0         0         0         0         0         0         0
         0         0         0         0         0         0         0         0
         0         0         0         0         0         0         0         0
         0         0         0         0         0         0         0         0
         0         0         0         0         0         0         0         0
         0         0         0         0         0         0         0         0
         0         0         0         0         0         0         0         0
         0         0         0         0         0         0         0         0
         0         0         0         0         0         0         0         0
         0         0         0         0         0         0         0         0
         0         0         0         0         0         0         0         0
         0         0         0         0         0         0         0         0
         0         0         0         0         0         0         0         0
         0         0         0         0         0         0         0         0
         0         0         0         0         0         0         0         0
         0         0         0         0         0         0         0         0
         0         0         0         0         0         0         0         0
         0         0         0         0         0         0         0         0
         0         0         0         0         0         0         0         0
         0         0         0         0         0         0         0         0
         0         0         0         0         0         0         0         0
         0         0         0         0         0         0         0         0
         0         0         0         0         0         0         0         0
         0         0         0         0         0         0         0         0
         0         0         0         0         0         0         0         0
         0         0         0         0         0         0         0         0
         0         0         0         0         0         0         0         0
         0         0         0         0         0         0         0         0
         0         0         0         0         0         0         0         0
         0         0         0         0         0         0         0         0
         0         0         0         0         0         0         0         0
         0         0         0         0         0         0         0         0
         0         0         0         0         0         0         0         0
         0         0         0         0         0         0         0         0
         0         0         0         0         0         0         0         0
         0         0         0         0         0         0         0         0
         0         0         0         0         0         0         0         0
         0         0         0         0         0         0         0         0
         0         0         0         0         0         0         0         0
         0         0         0         0         0         0         0         0
         0         0         0         0         0         0         0         0
         0         0         0         0         0         0         0         0
         0         0         0         0         0         0         0         0
         0         0         0         0         0         0         0         0
         0         0         0         0         0         0         0         0
         0         0         0         0         0         0         0         0
         0         0         0         0         0         0         0         0
         0         0         0         0         0         0         0         0
         0         0         0         0         0         0         0         0
         0         0         0         0         0         0         0         0
         0         0         0         0         0         0         0         0
         0         0         0         0         0         0         0         0
         0         0         0         0         0         0         0         0
         0         0         0         0         0         0         0         0
         0         0         0         0         0         0         0         0
         0         0         0         0         0         0         0         0
         0         0         0         0         0         0         0         0
         0         0         0         0         0         0         0         0
         0         0         0         0         0         0         0         0
         0         0         0         0         0         0         0         0
         0         0         0         0         0         0         0         0
         0         0         0         0         0         0         0         0
         0         0         0         0         0         0         0         0
         0         0         0         0         0         0         0         0
         0         0         0         0         0         0         0         0
         0         0         0         0         0         0         0         0
         0         0         0         0         0         0         0         0
         0         0         0         0         0         0         0         0
         0         0         0         0         0         0         0         0
         0         0         0         0         0         0         0         0
         0         0         0         0         0         0         0         0
         0         0         0         0         0         0         0         0
         0         0         0         0         0         0         0         0
         0         0         0         0         0         0         0         0
         0         0         0         0         0         0         0         0
         0         0         0         0         0         0         0         0
         0         0         0         0         0         0         0         0
         0         0         0         0         0         0         0         0
         0         0         0         0         0         0         0         0
         0         0         0         0         0         0         0         0
         0         0         0         0         0         0         0         0
         0         0         0         0         0         0         0         0
         0         0         0         0         0         0         0         0
         0         0         0         0         0         0         0         0
         0         0         0         0         0         0         0         0
         0         0         0         0         0         0         0         0
         0         0         0         0         0         0         0         0
         0         0         0         0         0         0         0         0
         0         0         0         0         0         0         0         0
         0         0         0         0         0         0         0         0
         0         0         0         0         0         0         0         0
         0         0         0         0         0         0         0         0
         0         0         0         0         0         0         0         0
         0         0         0         0         0         0         0         0
         0         0         0         0         0         0         0         0
         0         0         0         0         0         0         0         0
         0         0         0         0         0         0         0         0
         0         0         0         0         0         0         0         0
         0         0         0         0         0         0         0         0
         0         0         0         0         0         0         0         0
         0         0         0         0         0         0         0         0
         0         0         0         0         0         0         0         0
         0         0         0         0         0         0         0         0
         0         0         0         0         0         0         0         0
         0         0         0         0         0         0         0         0
         0         0         0         0         0         0         0         0
         0         0         0         0         0         0         0         0
         0         0         0         0         0         0         0         0
         0         0         0         0         0         0         0         0
         0         0         0         0         0         0         0         0
         0         0         0         0         0         0         0         0
         0         0         0         0         0         0         0         0
         0         0         0         0         0         0         0         0
         0         0         0         0         0         0         0         0
         0         0         0         0         0         0         0         0
         0         0         0         0         0         0         0         0
         0         0         0         0         0         0         0         0
         0         0         0         0         0         0         0         0
         0         0         0         0         0         0         0         0
         0         0         0         0         0         0         0         0
         0         0         0         0         0         0         0         0
         0         0         0         0         0         0         0         0
         0         0         0         0         0         0         0         0
         0         0         0         0         0         0         0         0
         0         0         0         0         0         0         0         0
         0         0         0         0         0         0         0         0
         0         0         0         0         0         0         0         0
         0         0         0         0         0         0         0         0
         0         0         0         0         0         0         0         0
         0         0         0         0         0         0         0         0
         0         0         0         0         0         0         0         0
         0         0         0         0         0         0         0         0
         0         0         0         0         0         0         0         0
         0         0         0         0         0         0         0         0
         0         0         0         0         0         0         0         0
         0         0         0         0         0         0         0         0
         0         0         0         0         0         0         0         0
         0         0         0         0         0         0         0         0
         0         0         0         0         0         0         0         0
         0         0         0         0         0         0         0         0
         0         0         0         0         0         0         0         0
         0         0         0         0         0         0         0         0
         0         0         0         0         0         0         0         0
         0         0         0         0         0         0         0         0
         0         0         0         0         0         0         0         0
         0         0         0         0         0         0         0         0
         0         0         0         0         0         0         0         0
         0         0         0         0         0         0         0         0
         0         0         0         0         0         0         0         0
         0         0         0         0         0         0         0         0
         0         0         0         0         0         0         0         0
         0         0         0         0         0         0         0         0
         0         0         0         0         0         0         0         0
         0         0         0         0         0         0         0         0
         0         0         0         0         0         0         0         0
         0         0         0         0         0         0         0         0
         0         0         0         0         0         0         0         0
         0         0         0         0         0         0         0         0
         0         0         0         0         0         0         0         0
         0         0         0         0         0         0         0         0
         0         0         0         0         0         0         0         0
         0         0         0         0         0         0         0         0
         0         0         0         0         0         0         0         0
         0         0         0         0         0         0         0         0
         0         0         0         0         0         0         0         0
         0         0         0         0         0         0         0         0
         0         0         0         0         0         0         0         0
         0         0         0         0         0         0         0         0
         0         0         0         0         0         0         0         0
         0         0         0         0         0         0         0         0
         0         0         0         0         0         0         0         0
         0         0         0         0         0         0         0         0
         0         0         0         0         0         0         0         0
         0         0         0         0         0         0         0         0
         0         0         0         0         0         0         0         0
         0         0         0         0         0         0         0         0
         0         0         0         0         0         0         0         0
         0         0         0         0         0         0         0         0
         0         0         0         0         0         0         0         0
         0         0         0         0         0         0         0         0
         0         0         0         0         0         0         0         0
         0         0         0         0         0         0         0         0
         0         0         0         0         0         0         0         0
         0         0         0         0         0         0         0         0
         0         0         0         0         0         0         0         0
         0         0         0         0         0         0         0         0
         0         0         0         0         0         0         0         0
         0         0         0         0         0         0         0         0
         0         0         0         0         0         0         0         0
         0         0         0         0         0         0         0         0
         0         0         0         0         0         0         0         0
         0         0         0         0         0         0         0         0
         0         0         0         0         0         0         0         0
         0         0         0         0         0         0         0         0
         0         0         0         0         0         0         0         0
         0         0         0         0         0         0         0         0
         0         0         0         0         0         0         0         0
         0         0         0         0         0         0         0         0
         0         0         0         0         0         0         0         0
         0         0         0         0         0         0         0         0
         0         0         0         0         0         0         0         0
         0         0         0         0         0         0         0         0
         0         0         0         0         0         0         0         0
         0         0         0         0         0         0         0         0
         0         0         0         0         0         0         0         0
         0         0         0         0         0         0         0         0
         0         0         0         0         0         0         0         0
         0         0         0         0         0         0         0         0
         0         0         0         0         0         0         0         0
         0         0         0         0         0         0         0         0
         0         0         0         0         0         0         0         0
         0         0         0         0         0         0         0         0
         0         0         0         0         0         0         0         0
         0         0         0         0         0         0         0         0
         0         0         0         0         0         0         0         0
         0         0         0         0         0         0         0         0
         0         0         0         0         0         0         0         0
         0         0         0         0         0         0         0         0
         0         0         0         0         0         0         0         0
         0         0         0         0         0         0         0         0
         0         0         0         0         0         0         0         0
         0         0         0         0         0         0         0         0
         0         0         0         0         0         0         0         0
         0         0         0         0         0         0         0         0
         0         0         0         0         0         0         0         0
         0         0         0         0         0         0         0         0
         0         0         0         0         0         0         0         0
         0         0         0         0         0         0         0         0
         0         0         0         0         0         0         0         0
         0         0         0         0         0         0         0         0
         0         0         0         0         0         0         0         0
         0         0         0         0         0         0         0         0
         0         0         0         0         0         0         0         0
         0         0         0         0         0         0         0         0
         0         0         0         0         0         0         0         0
         0         0         0         0         0         0         0         0
         0         0         0         0         0         0         0         0
         0         0         0         0         0         0         0         0
         0         0         0         0         0         0         0         0
         0         0         0         0         0         0         0         0
         0         0         0         0         0         0         0         0
         0         0         0         0         0         0         0         0
         0         0         0         0         0         0         0         0
         0         0         0         0         0         0         0         0
         0         0         0         0         0         0         0         0
         0         0         0         0         0         0         0         0
         0         0         0         0         0         0         0         0
         0         0         0         0         0         0         0         0
         0         0         0         0         0         0         0         0
         0         0         0         0         0         0         0         0
         0         0         0         0         0         0         0         0
         0         0         0         0         0         0         0         0
         0         0         0         0         0         0         0         0
         0         0         0         0         0         0         0         0
         0         0         0         0         0         0         0         0
         0         0         0         0         0         0         0         0
         0         0         0         0         0         0         0         0
         0         0         0         0         0         0         0         0
         0         0         0         0         0         0         0         0
         0         0         0         0         0         0         0         0
         0         0         0         0         0         0         0         0
         0         0         0         0         0         0         0         0
         0         0         0         0         0         0         0         0
         0         0         0         0         0         0         0         0
         0         0         0         0         0         0         0         0
         0         0         0         0         0         0         0         0
         0         0         0         0         0         0         0         0
         0         0         0         0         0         0         0         0
         0         0         0         0         0         0         0         0
         0         0         0         0         0         0         0         0
         0         0         0         0         0         0         0         0
         0         0         0         0         0         0         0         0
         0         0         0         0         0         0         0         0
         0         0         0         0         0         0         0         0
         0         0         0         0         0         0         0         0
         0         0         0         0         0         0         0         0
         0         0         0         0         0         0         0         0
         0         0         0         0         0         0         0         0
         0         0         0         0         0         0         0         0
         0         0         0         0         0         0         0         0
         0         0         0         0         0         0         0         0
         0         0         0         0         0         0         0         0
         0         0         0         0         0         0         0         0
         0         0         0         0         0         0         0         0
         0         0         0         0         0         0         0         0
         0         0         0         0         0         0         0         0
         0         0         0         0         0         0         0         0
         0         0         0         0         0         0         0         0
         0         0         0         0         0         0         0         0
         0         0         0         0         0         0         0         0
         0         0         0         0         0         0         0         0
         0         0         0         0         0         0         0         0
         0         0         0         0         0         0         0         0
         0         0         0         0         0         0         0         0
         0         0         0         0         0         0         0         0
         0         0         0         0         0         0         0         0
         0         0         0         0         0         0         0         0
         0         0         0         0         0         0         0         0
         0         0         0         0         0         0         0         0
         0         0         0         0         0         0         0         0
         0         0         0         0         0         0         0         0
         0         0         0         0         0         0         0         0
         0         0         0         0         0         0         0         0
         0         0         0         0         0         0         0         0
         0         0         0         0         0         0         0         0
         0         0         0         0         0         0         0         0
         0         0         0         0         0         0         0         0
         0         0         0         0         0         0         0         0
         0         0         0         0         0         0         0         0
         0         0         0         0         0         0         0         0
         0         0         0         0         0         0         0         0
         0         0         0         0         0         0         0         0
         0         0         0         0         0         0         0         0
         0         0         0         0         0         0         0         0
         0         0         0         0         0         0         0         0
         0         0         0         0         0         0         0         0
         0         0         0         0         0         0         0         0
         0         0         0         0         0         0         0         0
         0         0         0         0         0         0         0         0
         0         0         0         0         0         0         0         0
         0         0         0         0         0         0         0         0
         0         0         0         0         0         0         0         0
         0         0         0         0         0         0         0         0
         0         0         0         0         0         0         0         0
         0         0         0         0         0         0         0         0
         0         0         0         0         0         0         0         0
         0         0         0         0         0         0         0         0
         0         0         0         0         0         0         0         0
         0         0         0         0         0         0         0         0
         0         0         0         0         0         0         0         0
         0         0         0         0         0         0         0         0
         0         0         0         0         0         0         0         0
         0         0         0         0         0         0         0         0
         0         0         0         0         0         0         0         0
         0         0         0         0         0         0         0         0
         0         0         0         0         0         0         0         0
         0         0         0         0         0         0         0         0
         0         0         0         0         0         0         0         0
         0         0         0         0         0         0         0         0
         0         0         0         0         0         0         0         0
         0         0         0         0         0         0         0         0
         0         0         0         0         0         0         0         0
         0         0         0         0         0         0         0         0
         0         0         0         0         0         0         0         0
         0         0         0         0         0         0         0         0
         0         0         0         0         0         0         0         0
         0         0         0         0         0         0         0         0
         0         0         0         0         0         0         0         0
         0         0         0         0         0         0         0         0
         0         0         0         0         0         0         0         0
         0         0         0         0         0         0         0         0
         0         0         0         0         0         0         0         0
         0         0         0         0         0         0         0         0
         0         0         0         0         0         0         0         0
         0         0         0         0         0         0         0         0
         0         0         0         0         0         0         0         0
         0         0         0         0         0         0         0         0
         0         0         0         0         0         0         0         0
         0         0         0         0         0         0         0         0
         0         0         0         0         0         0         0         0
         0         0         0         0         0         0         0         0
         0         0         0         0         0         0         0         0
         0         0         0         0         0         0         0         0
         0         0         0         0         0         0         0         0
         0         0         0         0         0         0         0         0
         0         0         0         0         0         0         0         0
         0         0         0         0         0         0         0         0
         0         0         0         0         0         0         0         0
         0         0         0         0         0         0         0         0
         0         0         0         0         0         0         0         0
         0         0         0         0         0         0         0         0
         0         0         0         0         0         0         0         0
         0         0         0         0         0         0         0         0
         0         0         0         0         0         0         0         0
         0         0         0         0         0         0         0         0
         0         0         0         0         0         0         0         0
         0         0         0         0         0         0         0         0
         0         0         0         0         0         0         0         0
         0         0         0         0         0         0         0         0
         0         0         0         0         0         0         0         0
         0         0         0         0         0         0         0         0
         0         0         0         0         0         0         0         0
         0         0         0         0         0         0         0         0
         0         0         0         0         0         0         0         0
         0         0         0         0         0         0         0         0
         0         0         0         0         0         0         0         0
         0         0         0         0         0         0         0         0
         0         0         0         0         0         0         0         0
         0         0         0         0         0         0         0         0
         0         0         0         0         0         0         0         0
         0         0         0         0         0         0         0         0
         0         0         0         0         0         0         0         0
         0         0         0         0         0         0         0         0
         0         0         0         0         0         0         0         0
         0         0         0         0         0         0         0         0
         0         0         0         0         0         0         0         0
         0         0         0         0         0         0         0         0
         0         0         0         0         0         0         0         0
         0         0         0         0         0         0         0         0
         0         0         0         0         0         0         0         0
         0         0         0         0         0         0         0         0
         0         0         0         0         0         0         0         0
         0         0         0         0         0         0         0         0
         0         0         0         0         0         0         0         0
         0         0         0         0         0         0         0         0
         0         0         0         0         0         0         0         0
         0         0         0         0         0         0         0         0
         0         0         0         0         0         0         0         0
         0         0         0         0         0         0         0         0
         0         0         0         0         0         0         0         0
         0         0         0         0         0         0         0         0
         0         0         0         0         0         0         0         0
         0         0         0         0         0         0         0         0
         0         0         0         0         0         0         0         0
         0         0         0         0         0         0         0         0
         0         0         0         0         0         0         0         0
         0         0         0         0         0         0         0         0
         0         0         0         0         0         0         0         0
         0         0         0         0         0         0         0         0
         0         0         0         0         0         0         0         0
         0         0         0         0         0         0         0         0
         0         0         0         0         0         0         0         0
         0         0         0         0         0         0         0         0
         0         0         0         0         0         0         0         0
         0         0         0         0         0         0         0         0
         0         0         0         0         0         0         0         0
         0         0         0         0         0         0         0         0
         0         0         0         0         0         0         0         0
         0         0         0         0         0         0         0         0
         0         0         0         0         0         0         0         0
         0         0         0         0         0         0         0         0
         0         0         0         0         0         0         0         0
         0         0         0         0         0         0         0         0
         0         0         0         0         0         0         0         0
         0         0         0         0         0         0         0         0
         0         0         0         0         0         0         0         0
         0         0         0         0         0         0         0         0
         0         0         0         0         0         0         0         0
         0         0         0         0         0         0         0         0
         0         0         0         0         0         0         0         0
         0         0         0         0         0         0         0         0
         0         0         0         0         0         0         0         0
         0         0         0         0         0         0         0         0
         0         0         0         0         0         0         0         0
         0         0         0         0         0         0         0         0
         0         0         0         0         0         0         0         0
         0         0         0         0         0         0         0         0
         0         0         0         0         0         0         0         0
         0         0         0         0         0         0         0         0
         0         0         0         0         0         0         0         0
         0         0         0         0         0         0         0         0
         0         0         0         0         0         0         0         0
         0         0         0         0         0         0         0         0
         0         0         0         0         0         0         0         0
         0         0         0         0         0         0         0         0
         0         0         0         0         0         0         0         0
         0         0         0         0         0         0         0         0
         0         0         0         0         0         0         0         0
         0         0         0         0         0         0         0         0
         0         0         0         0         0         0         0         0
         0         0         0         0         0         0         0         0
         0         0         0         0         0         0         0         0
         0         0         0         0         0         0         0         0
         0         0         0         0         0         0         0         0
         0         0         0         0         0         0         0         0
         0         0         0         0         0         0         0         0
         0         0         0         0         0         0         0         0
         0         0         0         0         0         0         0         0
         0         0         0         0         0         0         0         0
         0         0         0         0         0         0         0         0
         0         0         0         0         0         0         0         0
         0         0         0         0         0         0         0         0
         0         0         0         0         0         0         0         0
         0         0         0         0         0         0         0         0
         0         0         0         0         0         0         0         0
         0         0         0         0         0         0         0         0
         0         0         0         0         0         0         0         0
         0         0         0         0         0         0         0         0
         0         0         0         0         0         0         0         0
         0         0         0         0         0         0         0         0
         0         0         0         0         0         0         0         0
         0         0         0         0         0         0         0         0
         0         0         0         0         0         0         0         0
         0         0         0         0         0         0         0         0
         0         0         0         0         0         0         0         0
         0         0         0         0         0         0         0         0
         0         0         0         0         0         0         0         0
         0         0         0         0         0         0         0         0
         0         0         0         0         0         0         0         0
         0         0         0         0         0         0         0         0
         0         0         0         0         0         0         0         0
         0         0         0         0         0         0         0         0
         0         0         0         0         0         0         0         0
         0         0         0         0         0         0         0         0
         0         0         0         0         0         0         0         0
         0         0         0         0         0         0         0         0
         0         0         0         0         0         0         0         0
         0         0         0         0         0         0         0         0
         0         0         0         0         0         0         0         0
         0         0         0         0         0         0         0         0
         0         0         0         0         0         0         0         0
         0         0         0         0         0         0         0         0
         0         0         0         0         0         0         0         0
         0         0         0         0         0         0         0         0
         0         0         0         0         0         0         0         0
         0         0         0         0         0         0         0         0
         0         0         0         0         0         0         0         0
         0         0         0         0         0         0         0         0
         0         0         0         0         0         0         0         0
         0         0         0         0         0         0         0         0
         0         0         0         0         0         0         0         0
         0         0         0         0         0         0         0         0
         0         0         0         0         0         0         0         0
         0         0         0         0         0         0         0         0
         0         0         0         0         0         0         0         0
         0         0         0         0         0         0         0         0
         0         0         0         0         0         0         0         0
         0         0         0         0         0         0         0         0
         0         0         0         0         0         0         0         0
         0         0         0         0         0         0         0         0
         0         0         0         0         0         0         0         0
         0         0         0         0         0         0         0         0
         0         0         0         0         0         0         0         0
         0         0         0         0         0         0         0         0
         0         0         0         0         0         0         0         0
         0         0         0         0         0         0         0         0
         0         0         0         0         0         0         0         0
         0         0         0         0         0         0         0         0
         0         0         0         0         0         0         0         0
         0         0         0         0         0         0         0         0
         0         0         0         0         0         0         0         0
         0         0         0         0         0         0         0         0
         0         0         0         0         0         0         0         0
         0         0         0         0         0         0         0         0
         0         0         0         0         0         0         0         0
         0         0         0         0         0         0         0         0
         0         0         0         0         0         0         0         0
         0         0         0         0         0         0         0         0
         0         0         0         0         0         0         0         0
         0         0         0         0         0         0         0         0
         0         0         0         0         0         0         0         0
         0         0         0         0         0         0         0         0
         0         0         0         0         0         0         0         0
         0         0         0         0         0         0         0         0
         0         0         0         0         0         0         0         0
         0         0         0         0         0         0         0         0
         0         0         0         0         0         0         0         0
         0         0         0         0         0         0         0         0
         0         0         0         0         0         0         0         0
         0         0         0         0         0         0         0         0
         0         0         0         0         0         0         0         0
         0         0         0         0         0         0         0         0
         0         0         0         0         0         0         0         0
         0         0         0         0         0         0         0         0
         0         0         0         0         0         0         0         0
         0         0         0         0         0         0         0         0
         0         0         0         0         0         0         0         0
         0         0         0         0         0         0         0         0
         0         0         0         0         0         0         0         0
         0         0         0         0         0         0         0         0
         0         0         0         0         0         0         0         0
         0         0         0         0         0         0         0         0
         0         0         0         0         0         0         0         0
         0         0         0         0         0         0         0         0
         0         0         0         0         0         0         0         0
         0         0         0         0         0         0         0         0
         0         0         0         0         0         0         0         0
         0         0         0         0         0         0         0         0
         0         0         0         0         0         0         0         0
         0         0         0         0         0         0         0         0
         0         0         0         0         0         0         0         0
         0         0         0         0         0         0         0         0
         0         0         0         0         0         0         0         0
         0         0         0         0         0         0         0         0
         0         0         0         0         0         0         0         0
         0         0         0         0         0         0         0         0
         0         0         0         0         0         0         0         0
         0         0         0         0         0         0         0         0
         0         0         0         0         0         0         0         0
         0         0         0         0         0         0         0         0
         0         0         0         0         0         0         0         0
         0         0         0         0         0         0         0         0
         0         0         0         0         0         0         0         0
         0         0         0         0         0         0         0         0
         0         0         0         0         0         0         0         0
         0         0         0         0         0         0         0         0
         0         0         0         0         0         0         0         0
         0         0         0         0         0         0         0         0
         0         0         0         0         0         0         0         0
         0         0         0         0         0         0         0         0
         0         0         0         0         0         0         0         0
         0         0         0         0         0         0         0         0
         0         0         0         0         0         0         0         0
         0         0         0         0         0         0         0         0
         0         0         0         0         0         0         0         0
         0         0         0         0         0         0         0         0
         0         0         0         0         0         0         0         0
         0         0         0         0         0         0         0         0
         0         0         0         0         0         0         0         0
         0         0         0         0         0         0         0         0
         0         0         0         0         0         0         0         0
         0         0         0         0         0         0         0         0
         0         0         0         0         0         0         0         0
         0         0         0         0         0         0         0         0
         0         0         0         0         0         0         0         0
         0         0         0         0         0         0         0         0
         0         0         0         0         0         0         0         0
         0         0         0         0         0         0         0         0
         0         0         0         0         0         0         0         0
         0         0         0         0         0         0         0         0
         0         0         0         0         0         0         0         0
         0         0         0         0         0         0         0         0
         0         0         0         0         0         0         0         0
         0         0         0         0         0         0         0         0
         0         0         0         0         0         0         0         0
         0         0         0         0         0         0         0         0
         0         0         0         0         0         0         0         0
         0         0         0         0         0         0         0         0
         0         0         0         0         0         0         0         0
         0         0         0         0         0         0         0         0
         0         0         0         0         0         0         0         0
         0         0         0         0         0         0         0         0
         0         0         0         0         0         0         0         0
         0         0         0         0         0         0         0         0
         0         0         0         0         0         0         0         0
         0         0         0         0         0         0         0         0
         0         0         0         0         0         0         0         0
         0         0         0         0         0         0         0         0
         0         0         0         0         0         0         0         0
         0         0         0         0         0         0         0         0
         0         0         0         0         0         0         0         0
         0         0         0         0         0         0         0         0
         0         0         0         0         0         0         0         0
         0         0         0         0         0         0         0         0
         0         0         0         0         0         0         0         0
         0         0         0         0         0         0         0         0
         0         0         0         0         0         0         0         0
         0         0         0         0         0         0         0         0
         0         0         0         0         0         0         0         0
         0         0         0         0         0         0         0         0
         0         0         0         0         0         0         0         0
         0         0         0         0         0         0         0         0
         0         0         0         0         0         0         0         0
         0         0         0         0         0         0         0         0
         0         0         0         0         0         0         0         0
         0         0         0         0         0         0         0         0
         0         0         0         0         0         0         0         0
         0         0         0         0         0         0         0         0
         0         0         0         0         0         0         0         0
         0         0         0         0         0         0         0         0
         0         0         0         0         0         0         0         0
         0         0         0         0         0         0         0         0
         0         0         0         0         0         0         0         0
         0         0         0         0         0         0         0         0
         0         0         0         0         0         0         0         0
         0         0         0         0         0         0         0         0
         0         0         0         0         0         0         0         0
         0         0         0         0         0         0         0         0
         0         0         0         0         0         0         0         0
         0         0         0         0         0         0         0         0
         0         0         0         0         0         0         0         0
         0         0         0         0         0         0         0         0
         0         0         0         0         0         0         0         0
         0         0         0         0         0         0         0         0
         0         0         0         0         0         0         0         0
         0         0         0         0         0         0         0         0
         0         0         0         0         0         0         0         0
         0         0         0         0         0         0         0         0
         0         0         0         0         0         0         0         0
         0         0         0         0         0         0         0         0
         0         0         0         0         0         0         0         0
         0         0         0         0         0         0         0         0
         0         0         0         0         0         0         0         0
         0         0         0         0         0         0         0         0
         0         0         0         0         0         0         0         0
         0         0         0         0         0         0         0         0
         0         0         0         0         0         0         0         0
         0         0         0         0         0         0         0         0
         0         0         0         0         0         0         0         0
         0         0         0         0         0         0         0         0
         0         0         0         0         0         0         0         0
         0         0         0         0         0         0         0         0
         0         0         0         0         0         0         0         0
         0         0         0         0         0         0         0         0
         0         0         0         0         0         0         0         0
         0         0         0         0         0         0         0         0
         0         0         0         0         0         0         0         0
         0         0         0         0         0         0         0         0
         0         0         0         0         0         0         0         0
         0         0         0         0         0         0         0         0
         0         0         0         0         0         0         0         0
         0         0         0         0         0         0         0         0
         0         0         0         0         0         0         0         0
         0         0         0         0         0         0         0         0
         0         0         0         0         0         0         0         0
         0         0         0         0         0         0         0         0
         0         0         0         0         0         0         0         0
         0         0         0         0         0         0         0         0
         0         0         0         0         0         0         0         0
         0         0         0         0         0         0         0         0
         0         0         0         0         0         0         0         0
         0         0         0         0         0         0         0         0
         0         0         0         0         0         0         0         0
         0         0         0         0         0         0         0         0
         0         0         0         0         0         0         0         0
         0         0         0         0         0         0         0         0
         0         0         0         0         0         0         0         0
         0         0         0         0         0         0         0         0
         0         0         0         0         0         0         0         0
         0         0         0         0         0         0         0         0
         0         0         0         0         0         0         0         0
         0         0         0         0         0         0         0         0
         0         0         0         0         0         0         0         0
         0         0         0         0         0         0         0         0
         0         0         0         0         0         0         0         0
         0         0         0         0         0         0         0         0
         0         0         0         0         0         0         0         0
         0         0         0         0         0         0         0         0
         0         0         0         0         0         0         0         0
         0         0         0         0         0         0         0         0
         0         0         0         0         0         0         0         0
         0         0         0         0         0         0         0         0
         0         0         0         0         0         0         0         0
         0         0         0         0         0         0         0         0
         0         0         0         0         0         0         0         0
         0         0         0         0         0         0         0         0
         0         0         0         0         0         0         0         0
         0         0         0         0         0         0         0         0
         0         0         0         0         0         0         0         0
         0         0         0         0         0         0         0         0
         0         0         0         0         0         0         0         0
         0         0         0         0         0         0         0         0
         0         0         0         0         0         0         0         0
         0         0         0         0         0         0         0         0
         0         0         0         0         0         0         0         0
         0         0         0         0         0         0         0         0
         0         0         0         0         0         0         0         0
         0         0         0         0         0         0         0         0
         0         0         0         0         0         0         0         0
         0         0         0         0         0         0         0         0
         0         0         0         0         0         0         0         0
         0         0         0         0         0         0         0         0
         0         0         0         0         0         0         0         0
         0         0         0         0         0         0         0         0
         0         0         0         0         0         0         0         0
         0         0         0         0         0         0         0         0
         0         0         0         0         0         0         0         0
         0         0         0         0         0         0         0         0
         0         0         0         0         0         0         0         0
         0         0         0         0         0         0         0         0
         0         0         0         0         0         0         0         0
         0         0         0         0         0         0         0         0
         0         0         0         0         0         0         0         0
         0         0         0         0         0         0         0         0
         0         0         0         0         0         0         0         0
         0         0         0         0         0         0         0         0
         0         0         0         0         0         0         0         0
         0         0         0         0         0         0         0         0
         0         0         0         0         0         0         0         0
         0         0         0         0         0         0         0         0
         0         0         0         0         0         0         0         0
         0         0         0         0         0         0         0         0
         0         0         0         0         0         0         0         0
         0         0         0         0         0         0         0         0
         0         0         0         0         0         0         0         0
         0         0         0         0         0         0         0         0
         0         0         0         0         0         0         0         0
         0         0         0         0         0         0         0         0
         0         0         0         0         0         0         0         0
         0         0         0         0         0         0         0         0
         0         0         0         0         0         0         0         0
         0         0         0         0         0         0         0         0
         0         0         0         0         0         0         0         0
         0         0         0         0         0         0         0         0
         0         0         0         0         0         0         0         0
         0         0         0         0         0         0         0         0
         0         0         0         0         0         0         0         0
         0         0         0         0         0         0         0         0
         0         0         0         0         0         0         0         0
         0         0         0         0         0         0         0         0
         0         0         0         0         0         0         0         0
         0         0         0         0         0         0         0         0
         0         0         0         0         0         0         0         0
         0         0         0         0         0         0         0         0
         0         0         0         0         0         0         0         0
         0         0         0         0         0         0         0         0
         0         0         0         0         0         0         0         0
         0         0         0         0         0         0         0         0
         0         0         0         0         0         0         0         0
         0         0         0         0         0         0         0         0
         0         0         0         0         0         0         0         0
         0         0         0         0         0         0         0         0
         0         0         0         0         0         0         0         0
         0         0         0         0         0         0         0         0
         0         0         0         0         0         0         0         0
         0         0         0         0         0         0         0         0
         0         0         0         0         0         0         0         0
         0         0         0         0         0         0         0         0
         0         0         0         0         0         0         0         0
         0         0         0         0         0         0         0         0
         0         0         0         0         0         0         0         0
         0         0         0         0         0         0         0         0
         0         0         0         0         0         0         0         0
         0         0         0         0         0         0         0         0
         0         0         0         0         0         0         0         0
         0         0         0         0         0         0         0         0
         0         0         0         0         0         0         0         0
         0         0         0         0         0         0         0         0
         0         0         0         0         0         0         0         0
         0         0         0         0         0         0         0         0
         0         0         0         0         0         0         0         0
         0         0         0         0         0         0         0         0
         0         0         0         0         0         0         0         0
         0         0         0         0         0         0         0         0
         0         0         0         0         0         0         0         0
         0         0         0         0         0         0         0         0
         0         0         0         0         0         0         0         0
         0         0         0         0         0         0         0         0
         0         0         0         0         0         0         0         0
         0         0         0         0         0         0         0         0
         0         0         0         0         0         0         0         0
         0         0         0         0         0         0         0         0
         0         0         0         0         0         0         0         0
         0         0         0         0         0         0         0         0
         0         0         0         0         0         0         0         0
         0         0         0         0         0         0         0         0
         0         0         0         0         0         0         0         0
         0         0         0         0         0         0         0         0
         0         0         0         0         0         0         0         0
         0         0         0         0         0         0         0         0
         0         0         0         0         0         0         0         0
         0         0         0         0         0         0         0         0
         0         0         0         0         0         0         0         0
         0         0         0         0         0         0         0         0
         0         0         0         0         0         0         0         0
         0         0         0         0         0         0         0         0
         0         0         0         0         0         0         0         0
         0         0         0         0         0         0         0         0
         0         0         0         0         0         0         0         0
         0         0         0         0         0         0         0         0
         0         0         0         0         0         0         0         0
         0         0         0         0         0         0         0         0
         0         0         0         0         0         0         0         0
         0         0         0         0         0         0         0         0
         0         0         0         0         0         0         0         0
         0         0         0         0         0         0         0         0
         0         0         0         0         0         0         0         0
         0         0         0         0         0         0         0         0
         0         0         0         0         0         0         0         0
         0         0         0         0         0         0         0         0
         0         0         0         0         0         0         0         0
         0         0         0         0         0         0         0         0
         0         0         0         0         0         0         0         0
         0         0         0         0         0         0         0         0
         0         0         0         0         0         0         0         0
         0         0         0         0         0         0         0         0
         0         0         0         0         0         0         0         0
         0         0         0         0         0         0         0         0
         0         0         0         0         0         0         0         0
         0         0         0         0         0         0         0         0
         0         0         0         0         0         0         0         0
         0         0         0         0         0         0         0         0
         0         0         0         0         0         0         0         0
         0         0         0         0         0         0         0         0
         0         0         0         0         0         0         0         0
         0         0         0         0         0         0         0         0
         0         0         0         0         0         0         0         0
         0         0         0         0         0         0         0         0
         0         0         0         0         0         0         0         0
         0         0         0         0         0         0         0         0
         0         0         0         0         0         0         0         0
         0         0         0         0         0         0         0         0
         0         0         0         0         0         0         0         0
         0         0         0         0         0         0         0         0
         0         0         0         0         0         0         0         0
         0         0         0         0         0         0         0         0
         0         0         0         0         0         0         0         0
         0         0         0         0         0         0         0         0
         0         0         0         0         0         0         0         0
         0         0         0         0         0         0         0         0
         0         0         0         0         0         0         0         0
         0         0         0         0         0         0         0         0
         0         0         0         0         0         0         0         0
         0         0         0         0         0         0         0         0
         0         0         0         0         0         0         0         0
         0         0         0         0         0         0         0         0
         0         0         0         0         0         0         0         0
         0         0         0         0         0         0         0         0
         0         0         0         0         0         0         0         0
         0         0         0         0         0         0         0         0
         0         0         0         0         0         0         0         0
         0         0         0         0         0         0         0         0
         0         0         0         0         0         0         0         0
         0         0         0         0         0         0         0         0
         0         0         0         0         0         0         0         0
         0         0         0         0         0         0         0         0
         0         0         0         0         0         0         0         0
         0         0         0         0         0         0         0         0
         0         0         0         0         0         0         0         0
         0         0         0         0         0         0         0         0
         0         0         0         0         0         0         0         0
         0         0         0         0         0         0         0         0
         0         0         0         0         0         0         0         0
         0         0         0         0         0         0         0         0
         0         0         0         0         0         0         0         0
         0         0         0         0         0         0         0         0
         0         0         0         0         0         0         0         0
         0         0         0         0         0         0         0         0
         0         0         0         0         0         0         0         0
         0         0         0         0         0         0         0         0
         0         0         0         0         0         0         0         0
         0         0         0         0         0         0         0         0
         0         0         0         0         0         0         0         0
         0         0         0         0         0         0         0         0
         0         0         0         0         0         0         0         0
         0         0         0         0         0         0         0         0
         0         0         0         0         0         0         0         0
         0         0         0         0         0         0         0         0
         0         0         0         0         0         0         0         0
         0         0         0         0         0         0         0         0
         0         0         0         0         0         0         0         0
         0         0         0         0         0         0         0         0
         0         0         0         0         0         0         0         0
         0         0         0         0         0         0         0         0
         0         0         0         0         0         0         0         0
         0         0         0         0         0         0         0         0
         0         0         0         0         0         0         0         0
         0         0         0         0         0         0         0         0
         0         0         0         0         0         0         0         0
         0         0         0         0         0         0         0         0
         0         0         0         0         0         0         0         0
         0         0         0         0         0         0         0         0
         0         0         0         0         0         0         0         0
         0         0         0         0         0         0         0         0
         0         0         0         0         0         0         0         0
         0         0         0         0         0         0         0         0
         0         0         0         0         0         0         0         0
         0         0         0         0         0         0         0         0
         0         0         0         0         0         0         0         0
         0         0         0         0         0         0         0         0
         0         0         0         0         0         0         0         0
         0         0         0         0         0         0         0         0
         0         0         0         0         0         0         0         0
         0         0         0         0         0         0         0         0
         0         0         0         0         0         0         0         0
         0         0         0         0         0         0         0         0
         0         0         0         0         0         0         0         0
         0         0         0         0         0         0         0         0
         0         0         0         0         0         0         0         0
         0         0         0         0         0         0         0         0
         0         0         0         0         0         0         0         0
         0         0         0         0         0         0         0         0
         0         0         0         0         0         0         0         0
         0         0         0         0         0         0         0         0
         0         0         0         0         0         0         0         0
         0         0         0         0         0         0         0         0
         0         0         0         0         0         0         0         0
         0         0         0         0         0         0         0         0
         0         0         0         0         0         0         0         0
         0         0         0         0         0         0         0         0
         0         0         0         0         0         0         0         0
         0         0         0         0         0         0         0         0
         0         0         0         0         0         0         0         0
         0         0         0         0         0         0         0         0
         0         0         0         0         0         0         0         0
         0         0         0         0         0         0         0         0
         0         0         0         0         0         0         0         0
         0         0         0         0         0         0         0         0
         0         0         0         0         0         0         0         0
         0         0         0         0         0         0         0         0
         0         0         0         0         0         0         0         0
         0         0         0         0         0         0         0         0
         0         0         0         0         0         0         0         0
         0         0         0         0         0         0         0         0
         0         0         0         0         0         0         0         0
         0         0         0         0         0         0         0         0
         0         0         0         0         0         0         0         0
         0         0         0         0         0         0         0         0
         0         0         0         0         0         0         0         0
         0         0         0         0         0         0         0         0
         0         0         0         0         0         0         0         0
         0         0         0         0         0         0         0         0
         0         0         0         0         0         0         0         0
         0         0         0         0         0         0         0         0
         0         0         0         0         0         0         0         0
         0         0         0         0         0         0         0         0
         0         0         0         0         0         0         0         0
         0         0         0         0         0         0         0         0
         0         0         0         0         0         0         0         0
         0         0         0         0         0         0         0         0
         0         0         0         0         0         0         0         0
         0         0         0         0         0         0         0         0
         0         0         0         0         0         0         0         0
         0         0         0         0         0         0         0         0
         0         0         0         0         0         0         0         0
         0         0         0         0         0         0         0         0
         0         0         0         0         0         0         0         0
         0         0         0         0         0         0         0         0
         0         0         0         0         0         0         0         0
         0         0         0         0         0         0         0         0
         0         0         0         0         0         0         0         0
         0         0         0         0         0         0         0         0
         0         0         0         0         0         0         0         0
         0         0         0         0         0         0         0         0
         0         0         0         0         0         0         0         0
         0         0         0         0         0         0         0         0
         0         0         0         0         0         0         0         0
         0         0         0         0         0         0         0         0
         0         0         0         0         0         0         0         0
         0         0         0         0         0         0         0         0
         0         0         0         0         0         0         0         0
         0         0         0         0         0         0         0         0
         0         0         0         0         0         0         0         0
         0         0         0         0         0         0         0         0
         0         0         0         0         0         0         0         0
         0         0         0         0         0         0         0         0
         0         0         0         0         0         0         0         0
         0         0         0         0         0         0         0         0
         0         0         0         0         0         0         0         0
         0         0         0         0         0         0         0         0
         0         0         0         0         0         0         0         0
         0         0         0         0         0         0         0         0
         0         0         0         0         0         0         0         0
         0         0         0         0         0         0         0         0
         0         0         0         0         0         0         0         0
         0         0         0         0         0         0         0         0
         0         0         0         0         0         0         0         0
         0         0         0         0         0         0         0         0
         0         0         0         0         0         0         0         0
         0         0         0         0         0         0         0         0
         0         0         0         0         0         0         0         0
         0         0         0         0         0         0         0         0
         0         0         0         0         0         0         0         0
         0         0         0         0         0         0         0         0
         0         0         0         0         0         0         0         0
         0         0         0         0         0         0         0         0
         0         0         0         0         0         0         0         0
         0         0         0         0         0         0         0         0
         0         0         0         0         0         0         0         0
         0         0         0         0         0         0         0         0
         0         0         0         0         0         0         0         0
         0         0         0         0         0         0         0         0
         0         0         0         0         0         0         0         0
         0         0         0         0         0         0         0         0
         0         0         0         0         0         0         0         0
         0         0         0         0         0         0         0         0
         0         0         0         0         0         0         0         0
         0         0         0         0         0         0         0         0
         0         0         0         0         0         0         0         0
         0         0         0         0         0         0         0         0
         0         0         0         0         0         0         0         0
         0         0         0         0         0         0         0         0
         0         0         0         0         0         0         0         0
         0         0         0         0         0         0         0         0
         0         0         0         0         0         0         0         0
         0         0         0         0         0         0         0         0
         0         0         0         0         0         0         0         0
         0         0         0         0         0         0         0         0
         0         0         0         0         0         0         0         0
         0         0         0         0         0         0         0         0
         0         0         0         0         0         0         0         0
         0         0         0         0         0         0         0         0
         0         0         0         0         0         0         0         0
         0         0         0         0         0         0         0         0
         0         0         0         0         0         0         0         0
         0         0         0         0         0         0         0         0
         0         0         0         0         0         0         0         0
         0         0         0         0         0         0         0         0
         0         0         0         0         0         0         0         0
         0         0         0         0         0         0         0         0
         0         0         0         0         0         0         0         0
         0         0         0         0         0         0         0         0
         0         0         0         0         0         0         0         0
         0         0         0         0         0         0         0         0
         0         0         0         0         0         0         0         0
         0         0         0         0         0         0         0         0
         0         0         0         0         0         0         0         0
         0         0         0         0         0         0         0         0
         0         0         0         0         0         0         0         0
         0         0         0         0         0         0         0         0
         0         0         0         0         0         0         0         0
         0         0         0         0         0         0         0         0
         0         0         0         0         0         0         0         0
         0         0         0         0         0         0         0         0
         0         0         0         0         0         0         0         0
         0         0         0         0         0         0         0         0
         0         0         0         0         0         0         0         0
         0         0         0         0         0         0         0         0
         0         0         0         0         0         0         0         0
         0         0         0         0         0         0         0         0
         0         0         0         0         0         0         0         0
         0         0         0         0         0         0         0         0
         0         0         0         0         0         0         0         0
         0         0         0         0         0         0         0         0
         0         0         0         0         0         0         0         0
         0         0         0         0         0         0         0         0
         0         0         0         0         0         0         0         0
         0         0         0         0         0         0         0         0
         0         0         0         0         0         0         0         0
         0         0         0         0         0         0         0         0
         0         0         0         0         0         0         0         0
         0         0         0         0         0         0         0         0
         0         0         0         0         0         0         0         0
         0         0         0         0         0         0         0         0
         0         0         0         0         0         0         0         0
         0         0         0         0         0         0         0         0
         0         0         0         0         0         0         0         0
         0         0         0         0         0         0         0         0
         0         0         0         0         0         0         0         0
         0         0         0         0         0         0         0         0
         0         0         0         0         0         0         0         0
         0         0         0         0         0         0         0         0
         0         0         0         0         0         0         0         0
         0         0         0         0         0         0         0         0
         0         0         0         0         0         0         0         0
         0         0         0         0         0         0         0         0
         0         0         0         0         0         0         0         0
         0         0         0         0         0         0         0         0
         0         0         0         0         0         0         0         0
         0         0         0         0         0         0         0         0
         0         0         0         0         0         0         0         0
         0         0         0         0         0         0         0         0
         0         0         0         0         0         0         0         0
         0         0         0         0         0         0         0         0
         0         0         0         0         0         0         0         0
         0         0         0         0         0         0         0         0
         0         0         0         0         0         0         0         0
         0         0         0         0         0         0         0         0
         0         0         0         0         0         0         0         0
         0         0         0         0         0         0         0         0
         0         0         0         0         0         0         0         0
         0         0         0         0         0         0         0         0
         0         0         0         0         0         0         0         0
         0         0         0         0         0         0         0         0
         0         0         0         0         0         0         0         0
         0         0         0         0         0         0         0         0
         0         0         0         0         0         0         0         0
         0         0         0         0         0         0         0         0
         0         0         0         0         0         0         0         0
         0         0         0         0         0         0         0         0
         0         0         0         0         0         0         0         0
         0         0         0         0         0         0         0         0
         0         0         0         0         0         0         0         0
         0         0         0         0         0         0         0         0
         0         0         0         0         0         0         0         0
         0         0         0         0         0         0         0         0
         0         0         0         0         0         0         0         0
         0         0         0         0         0         0         0         0
         0         0         0         0         0         0         0         0
         0         0         0         0         0         0         0         0
         0         0         0         0         0         0         0         0
         0         0         0         0         0         0         0         0
         0         0         0         0         0         0         0         0
         0         0         0         0         0         0         0         0
         0         0         0         0         0         0         0         0
         0         0         0         0         0         0         0         0
         0         0         0         0         0         0         0         0
         0         0         0         0         0         0         0         0
         0         0         0         0         0         0         0         0
         0         0         0         0         0         0         0         0
         0         0         0         0         0         0         0         0
         0         0         0         0         0         0         0         0
         0         0         0         0         0         0         0         0
         0         0         0         0         0         0         0         0
         0         0         0         0         0         0         0         0
         0         0         0         0         0         0         0         0
         0         0         0         0         0         0         0         0
         0         0         0         0         0         0         0         0
         0         0         0         0         0         0         0         0
         0         0         0         0         0         0         0         0
         0         0         0         0         0         0         0         0
         0         0         0         0         0         0         0         0
         0         0         0         0         0         0         0         0
         0         0         0         0         0         0         0         0
         0         0         0         0         0         0         0         0
         0         0         0         0         0         0         0         0
         0         0         0         0         0         0         0         0
         0         0         0         0         0         0         0         0
         0         0         0         0         0         0         0         0
         0         0         0         0         0         0         0         0
         0         0         0         0         0         0         0         0
         0         0         0         0         0         0         0         0
         0         0         0         0         0         0         0         0
         0         0         0         0         0         0         0         0
         0         0         0         0         0         0         0         0
         0         0         0         0         0         0         0         0
         0         0         0         0         0         0         0         0
         0         0         0         0         0         0         0         0
         0         0         0         0         0         0         0         0
         0         0         0         0         0         0         0         0
         0         0         0         0         0         0         0         0
         0         0         0         0         0         0         0         0
         0         0         0         0         0         0         0         0
         0         0         0         0         0         0         0         0
         0         0         0         0         0         0         0         0
         0         0         0         0         0         0         0         0
         0         0         0         0         0         0         0         0
         0         0         0         0         0         0         0         0
         0         0         0         0         0         0         0         0
         0         0         0         0         0         0         0         0
         0         0         0         0         0         0         0         0
         0         0         0         0         0         0         0         0
         0         0         0         0         0         0         0         0
         0         0         0         0         0         0         0         0
         0         0         0         0         0         0         0         0
         0         0         0         0         0         0         0         0
         0         0         0         0         0         0         0         0
         0         0         0         0         0         0         0         0
         0         0         0         0         0         0         0         0
         0         0         0         0         0         0         0         0
         0         0         0         0         0         0         0         0
         0         0         0         0         0         0         0         0
         0         0         0         0         0         0         0         0
         0         0         0         0         0         0         0         0
         0         0         0         0         0         0         0         0
         0         0         0         0         0         0         0         0
         0         0         0         0         0         0         0         0
         0         0         0         0         0         0         0         0
         0         0         0         0         0         0         0         0
         0         0         0         0         0         0         0         0
         0         0         0         0         0         0         0         0
         0         0         0         0         0         0         0         0
         0         0         0         0         0         0         0         0
         0         0         0         0         0         0         0         0
         0         0         0         0         0         0         0         0
         0         0         0         0         0         0         0         0
         0         0         0         0         0         0         0         0
         0         0         0         0         0         0         0         0
         0         0         0         0         0         0         0         0
         0         0         0         0         0         0         0         0
         0         0         0         0         0         0         0         0
         0         0         0         0         0         0         0         0
         0         0         0         0         0         0         0         0
         0         0         0         0         0         0         0         0
         0         0         0         0         0         0         0         0
         0         0         0         0         0         0         0         0
         0         0         0         0         0         0         0         0
         0         0         0         0         0         0         0         0
         0         0         0         0         0         0         0         0
         0         0         0         0         0         0         0         0
         0         0         0         0         0         0         0         0
         0         0         0         0         0         0         0         0
         0         0         0         0         0         0         0         0
         0         0         0         0         0         0         0         0
         0         0         0         0         0         0         0         0
         0         0         0         0         0         0         0         0
         0         0         0         0         0         0         0         0
         0         0         0         0         0         0         0         0
         0         0         0         0         0         0         0         0
         0         0         0         0         0         0         0         0
         0         0         0         0         0         0         0         0
         0         0         0         0         0         0         0         0
         0         0         0         0         0         0         0         0
         0         0         0         0         0         0         0         0
         0         0         0         0         0         0         0         0
         0         0         0         0         0         0         0         0
         0         0         0         0         0         0         0         0
         0         0         0         0         0         0         0         0
         0         0         0         0         0         0         0         0
         0         0         0         0         0         0         0         0
         0         0         0         0         0         0         0         0
         0         0         0         0         0         0         0         0
         0         0         0         0         0         0         0         0
         0         0         0         0         0         0         0         0
         0         0         0         0         0         0         0         0
         0         0         0         0         0         0         0         0
         0         0         0         0         0         0         0         0
         0         0         0         0         0         0         0         0
         0         0         0         0         0         0         0         0
         0         0         0         0         0         0         0         0
         0         0         0         0         0         0         0         0
         0         0         0         0         0         0         0         0
         0         0         0         0         0         0         0         0
         0         0         0         0         0         0         0         0
         0         0         0         0         0         0         0         0
         0         0         0         0         0         0         0         0
         0         0         0         0         0         0         0         0
         0         0         0         0         0         0         0         0
         0         0         0         0         0         0         0         0
         0         0         0         0         0         0         0         0
         0         0         0         0         0         0         0         0
         0         0         0         0         0         0         0         0
         0         0         0         0         0         0         0         0
         0         0         0         0         0         0         0         0
         0         0         0         0         0         0         0         0
         0         0         0         0         0         0         0         0
         0         0         0         0         0         0         0         0
         0         0         0         0         0         0         0         0
         0         0         0         0         0         0         0         0
         0         0         0         0         0         0         0         0
         0         0         0         0         0         0         0         0
         0         0         0         0         0         0         0         0
         0         0         0         0         0         0         0         0
         0         0         0         0         0         0         0         0
         0         0         0         0         0         0         0         0
         0         0         0         0         0         0         0         0
         0         0         0         0         0         0         0         0
         0         0         0         0         0         0         0         0
         0         0         0         0         0         0         0         0
         0         0         0         0         0         0         0         0
         0         0         0         0         0         0         0         0
         0         0         0         0         0         0         0         0
         0         0         0         0         0         0         0         0
         0         0         0         0         0         0         0         0
         0         0         0         0         0         0         0         0
         0         0         0         0         0         0         0         0
         0         0         0         0         0         0         0         0
         0         0         0         0         0         0         0         0
         0         0         0         0         0         0         0         0
         0         0         0         0         0         0         0         0
         0         0         0         0         0         0         0         0
         0         0         0         0         0         0         0         0
         0         0         0         0         0         0         0         0
         0         0         0         0         0         0         0         0
         0         0         0         0         0         0         0         0
         0         0         0         0         0         0         0         0
         0         0         0         0         0         0         0         0
         0         0         0         0         0         0         0         0
         0         0         0         0         0         0         0         0
         0         0         0         0         0         0         0         0
         0         0         0         0         0         0         0         0
         0         0         0         0         0         0         0         0
         0         0         0         0         0         0         0         0
         0         0         0         0         0         0         0         0
         0         0         0         0         0         0         0         0
         0         0         0         0         0         0         0         0
         0         0         0         0         0         0         0         0
         0         0         0         0         0         0         0         0
         0         0         0         0         0         0         0         0
         0         0         0         0         0         0         0         0
         0         0         0         0         0         0         0         0
         0         0         0         0         0         0         0         0
         0         0         0         0         0         0         0         0
         0         0         0         0         0         0         0         0
         0         0         0         0         0         0         0         0
         0         0         0         0         0         0         0         0
         0         0         0         0         0         0         0         0
         0         0         0         0         0         0         0         0
         0         0         0         0         0         0         0         0
         0         0         0         0         0         0         0         0
         0         0         0         0         0         0         0         0
         0         0         0         0         0         0         0         0
         0         0         0         0         0         0         0         0
         0         0         0         0         0         0         0         0
         0         0         0         0         0         0         0         0
         0         0         0         0         0         0         0         0
         0         0         0         0         0         0         0         0
         0         0         0         0         0         0         0         0
         0         0         0         0         0         0         0         0
         0         0         0         0         0         0         0         0
         0         0         0         0         0         0         0         0
         0         0         0         0         0         0         0         0
         0         0         0         0         0         0         0         0
         0         0         0         0         0         0         0         0
         0         0         0         0         0         0         0         0
         0         0         0         0         0         0         0         0
         0         0         0         0         0         0         0         0
         0         0         0         0         0         0         0         0
         0         0         0         0         0         0         0         0
         0         0         0         0         0         0         0         0
         0         0         0         0         0         0         0         0
         0         0         0         0         0         0         0         0
         0         0         0         0         0         0         0         0
         0         0         0         0         0         0         0         0
         0         0         0         0         0         0         0         0
         0         0         0         0         0         0         0         0
         0         0         0         0         0         0         0         0
         0         0         0         0         0         0         0         0
         0         0         0         0         0         0         0         0
         0         0         0         0         0         0         0         0
         0         0         0         0         0         0         0         0
         0         0         0         0         0         0         0         0
         0         0         0         0         0         0         0         0
         0         0         0         0         0         0         0         0
         0         0         0         0         0         0         0         0
         0         0         0         0         0         0         0         0
         0         0         0         0         0         0         0         0
         0         0         0         0         0         0         0         0
         0         0         0         0         0         0         0         0
         0         0         0         0         0         0         0         0
         0         0         0         0         0         0         0         0
         0         0         0         0         0         0         0         0
         0         0         0         0         0         0         0         0
         0         0         0         0         0         0         0         0
         0         0         0         0         0         0         0         0
         0         0         0         0         0         0         0         0
         0         0         0         0         0         0         0         0
         0         0         0         0         0         0         0         0
         0         0         0         0         0         0         0         0
         0         0         0         0         0         0         0         0
         0         0         0         0         0         0         0         0
         0         0         0         0         0         0         0         0
         0         0         0         0         0         0         0         0
         0         0         0         0         0         0         0         0
         0         0         0         0         0         0         0         0
         0         0         0         0         0         0         0         0
         0         0         0         0         0         0         0         0
         0         0         0         0         0         0         0         0
         0         0         0         0         0         0         0         0
         0         0         0         0         0         0         0         0
         0         0         0         0         0         0         0         0
         0         0         0         0         0         0         0         0
         0         0         0         0         0         0         0         0
         0         0         0         0         0         0         0         0
         0         0         0         0         0         0         0         0
         0         0         0         0         0         0         0         0
         0         0         0         0         0         0         0         0
         0         0         0         0         0         0         0         0
         0         0         0         0         0         0         0         0
         0         0         0         0         0         0         0         0
         0         0         0         0         0         0         0         0
         0         0         0         0         0         0         0         0
         0         0         0         0         0         0         0         0
         0         0         0         0         0         0         0         0
         0         0         0         0         0         0         0         0
         0         0         0         0         0         0         0         0
         0         0         0         0         0         0         0         0
         0         0         0         0         0         0         0         0
         0         0         0         0         0         0         0         0
         0         0         0         0         0         0         0         0
         0         0         0         0         0         0         0         0
         0         0         0         0         0         0         0         0
         0         0         0         0         0         0         0         0
         0         0         0         0         0         0         0         0
         0         0         0         0         0         0         0         0
         0         0         0         0         0         0         0         0
         0         0         0         0         0         0         0         0
         0         0         0         0         0         0         0         0
         0         0         0         0         0         0         0         0
         0         0         0         0         0         0         0         0
         0         0         0         0         0         0         0         0
         0         0         0         0         0         0         0         0
         0         0         0         0         0         0         0         0
         0         0         0         0         0         0         0         0
         0         0         0         0         0         0         0         0
         0         0         0         0         0         0         0         0
         0         0         0         0         0         0         0         0
         0         0         0         0         0         0         0         0
         0         0         0         0         0         0         0         0
         0         0         0         0         0         0         0         0
         0         0         0         0         0         0         0         0
         0         0         0         0         0         0         0         0
         0         0         0         0         0         0         0         0
         0         0         0         0         0         0         0         0
         0         0         0         0         0         0         0         0
         0         0         0         0         0         0         0         0
         0         0         0         0         0         0         0         0
         0         0         0         0         0         0         0         0
         0         0         0         0         0         0         0         0
         0         0         0         0         0         0         0         0
         0         0         0         0         0         0         0         0
         0         0         0         0         0         0         0         0
         0         0         0         0         0         0         0         0
         0         0         0         0         0         0         0         0
         0         0         0         0         0         0         0         0
         0         0         0         0         0         0         0         0
         0         0         0         0         0         0         0         0
         0         0         0         0         0         0         0         0
         0         0         0         0         0         0         0         0
         0         0         0         0         0         0         0         0
         0         0         0         0         0         0         0         0
         0         0         0         0         0         0         0         0
         0         0         0         0         0         0         0         0
         0         0         0         0         0         0         0         0
         0         0         0         0         0         0         0         0
         0         0         0         0         0         0         0         0
         0         0         0         0         0         0         0         0
         0         0         0         0         0         0         0         0
         0         0         0         0         0         0         0         0
         0         0         0         0         0         0         0         0
         0         0         0         0         0         0         0         0
         0         0         0         0         0         0         0         0
         0         0         0         0         0         0         0         0
         0         0         0         0         0         0         0         0
         0         0         0         0         0         0         0         0
         0         0         0         0         0         0         0         0
         0         0         0         0         0         0         0         0
         0         0         0         0         0         0         0         0
         0         0         0         0         0         0         0         0
         0         0         0         0         0         0         0         0
         0         0         0         0         0         0         0         0
         0         0         0         0         0         0         0         0
         0         0         0         0         0         0         0         0
         0         0         0         0         0         0         0         0
         0         0         0         0         0         0         0         0
         0         0         0         0         0         0         0         0
         0         0         0         0         0         0         0         0
         0         0         0         0         0         0         0         0
         0         0         0         0         0         0         0         0
         0         0         0         0         0         0         0         0
         0         0         0         0         0         0         0         0
         0         0         0         0         0         0         0         0
         0         0         0         0         0         0         0         0
         0         0         0         0         0         0         0         0
         0         0         0         0         0         0         0         0
         0         0         0         0         0         0         0         0
         0         0         0         0         0         0         0         0
         0         0         0         0         0         0         0         0
         0         0         0         0         0         0         0         0
         0         0         0         0         0         0         0         0
         0         0         0         0         0         0         0         0
         0         0         0         0         0         0         0         0
         0         0         0         0         0         0         0         0
         0         0         0         0         0         0         0         0
         0         0         0         0         0         0         0         0
         0         0         0         0         0         0         0         0
         0         0         0         0         0         0         0         0
         0         0         0         0         0         0         0         0
         0         0         0         0         0         0         0         0
         0         0         0         0         0         0         0         0
         0         0         0         0         0         0         0         0
         0         0         0         0         0         0         0         0
         0         0         0         0         0         0         0         0
         0         0         0         0         0         0         0         0
         0         0         0         0         0         0         0         0
         0         0         0         0         0         0         0         0
         0         0         0         0         0         0         0         0
         0         0         0         0         0         0         0         0
         0         0         0         0         0         0         0         0
         0         0         0         0         0         0         0         0
         0         0         0         0         0         0         0         0
         0         0         0         0         0         0         0         0
         0         0         0         0         0         0         0         0
         0         0         0         0         0         0         0         0
         0         0         0         0         0         0         0         0
         0         0         0         0         0         0         0         0
         0         0         0         0         0         0         0         0
         0         0         0         0         0         0         0         0
         0         0         0         0         0         0         0         0
         0         0         0         0         0         0         0         0
         0         0         0         0         0         0         0         0
         0         0         0         0         0         0         0         0
         0         0         0         0         0         0         0         0
         0         0         0         0         0         0         0         0
         0         0         0         0         0         0         0         0
         0         0         0         0         0         0         0         0
         0         0         0         0         0         0         0         0
         0         0         0         0         0         0         0         0
         0         0         0         0         0         0         0         0
         0         0         0         0         0         0         0         0
         0         0         0         0         0         0         0         0
         0         0         0         0         0         0         0         0
         0         0         0         0         0         0         0         0
         0         0         0         0         0         0         0         0
         0         0         0         0         0         0         0         0
         0         0         0         0         0         0         0         0
         0         0         0         0         0         0         0         0
         0         0         0         0         0         0         0         0
         0         0         0         0         0         0         0         0
         0         0         0         0         0         0         0         0
         0         0         0         0         0         0         0         0
         0         0         0         0         0         0         0         0
         0         0         0         0         0         0         0         0
         0         0         0         0         0         0         0         0
         0         0         0         0         0         0         0         0
         0         0         0         0         0         0         0         0
         0         0         0         0         0         0         0         0
         0         0         0         0         0         0         0         0
         0         0         0         0         0         0         0         0
         0         0         0         0         0         0         0         0
         0         0         0         0         0         0         0         0
         0         0         0         0         0         0         0         0
         0         0         0         0         0         0         0         0
         0         0         0         0         0         0         0         0
         0         0         0         0         0         0         0         0
         0         0         0         0         0         0         0         0
         0         0         0         0         0         0         0         0
         0         0         0         0         0         0         0         0
         0         0         0         0         0         0         0         0
         0         0         0         0         0         0         0         0
         0         0         0         0         0         0         0         0
         0         0         0         0         0         0         0         0
         0         0         0         0         0         0         0         0
         0         0         0         0         0         0         0         0
         0         0         0         0         0         0         0         0
         0         0         0         0         0         0         0         0
         0         0         0         0         0         0         0         0
         0         0         0         0         0         0         0         0
         0         0         0         0         0         0         0         0
         0         0         0         0         0         0         0         0
         0         0         0         0         0         0         0         0
         0         0         0         0         0         0         0         0
         0         0         0         0         0         0         0         0
         0         0         0         0         0         0         0         0
         0         0         0         0         0         0         0         0
         0         0         0         0         0         0         0         0
         0         0         0         0         0         0         0         0
         0         0         0         0         0         0         0         0
         0         0         0         0         0         0         0         0
         0         0         0         0         0         0         0         0
         0         0         0         0         0         0         0         0
         0         0         0         0         0         0         0         0
         0         0         0         0         0         0         0         0
         0         0         0         0         0         0         0         0
         0         0         0         0         0         0         0         0
         0         0         0         0         0         0         0         0
         0         0         0         0         0         0         0         0
         0         0         0         0         0         0         0         0
         0         0         0         0         0         0         0         0
         0         0         0         0         0         0         0         0
         0         0         0         0         0         0         0         0
         0         0         0         0         0         0         0         0
         0         0         0         0         0         0         0         0
         0         0         0         0         0         0         0         0
         0         0         0         0         0         0         0         0
         0         0         0         0         0         0         0         0
         0         0         0         0         0         0         0         0
         0         0         0         0         0         0         0         0
         0         0         0         0         0         0         0         0
         0         0         0         0         0         0         0         0
         0         0         0         0         0         0         0         0
         0         0         0         0         0         0         0         0
         0         0         0         0         0         0         0         0
         0         0         0         0         0         0         0         0
         0         0         0         0         0         0         0         0
         0         0         0         0         0         0         0         0
         0         0         0         0         0         0         0         0
         0         0         0         0         0         0         0         0
         0         0         0         0         0         0         0         0
         0         0         0         0         0         0         0         0
         0         0         0         0         0         0         0         0
         0         0         0         0         0         0         0         0
         0         0         0         0         0         0         0         0
         0         0         0         0         0         0         0         0
         0         0         0         0         0         0         0         0
         0         0         0         0         0         0         0         0
         0         0         0         0         0         0         0         0
         0         0         0         0         0         0         0         0
         0         0         0         0         0         0         0         0
         0         0         0         0         0         0         0         0
         0         0         0         0         0         0         0         0
         0         0         0         0         0         0         0         0
         0         0         0         0         0         0         0         0
         0         0         0         0         0         0         0         0
         0         0         0         0         0         0         0         0
         0         0         0         0         0         0         0         0
         0         0         0         0         0         0         0         0
         0         0         0         0         0         0         0         0
         0         0         0         0         0         0         0         0
         0         0         0         0         0         0         0         0
         0         0         0         0         0         0         0         0
         0         0         0         0         0         0         0         0
         0         0         0         0         0         0         0         0
         0         0         0         0         0         0         0         0
         0         0         0         0         0         0         0         0
         0         0         0         0         0         0         0         0
         0         0         0         0         0         0         0         0
         0         0         0         0         0         0         0         0
         0         0         0         0         0         0         0         0
         0         0         0         0         0         0         0         0
         0         0         0         0         0         0         0         0
         0         0         0         0         0         0         0         0
         0         0         0         0         0         0         0         0
         0         0         0         0         0         0         0         0
         0         0         0         0         0         0         0         0
         0         0         0         0         0         0         0         0
         0         0         0         0         0         0         0         0
         0         0         0         0         0         0         0         0
         0         0         0         0         0         0         0         0
         0         0         0         0         0         0         0         0
         0         0         0         0         0         0         0         0
         0         0         0         0         0         0         0         0
         0         0         0         0         0         0         0         0
         0         0         0         0         0         0         0         0
         0         0         0         0         0         0         0         0
         0         0         0         0         0         0         0         0
         0         0         0         0         0         0         0         0
         0         0         0         0         0         0         0         0
         0         0         0         0         0         0         0         0
         0         0         0         0         0         0         0         0
         0         0         0         0         0         0         0         0
         0         0         0         0         0         0         0         0
         0         0         0         0         0         0         0         0
         0         0         0         0         0         0         0         0
         0         0         0         0         0         0         0         0
         0         0         0         0         0         0         0         0
         0         0         0         0         0         0         0         0
         0         0         0         0         0         0         0         0
         0         0         0         0         0         0         0         0
         0         0         0         0         0         0         0         0
         0         0         0         0         0         0         0         0
         0         0         0         0         0         0         0         0
         0         0         0         0         0         0         0         0
         0         0         0         0         0         0         0         0
         0         0         0         0         0         0         0         0
         0         0         0         0         0         0         0         0
         0         0         0         0         0         0         0         0
         0         0         0         0         0         0         0         0
         0         0         0         0         0         0         0         0
         0         0         0         0         0         0         0         0
         0         0         0         0         0         0         0         0
         0         0         0         0         0         0         0         0
         0         0         0         0         0         0         0         0
         0         0         0         0         0         0         0         0
         0         0         0         0         0         0         0         0
         0         0         0         0         0         0         0         0
         0         0         0         0         0         0         0         0
         0         0         0         0         0         0         0         0
         0         0         0         0         0         0         0         0
         0         0         0         0         0         0         0         0
         0         0         0         0         0         0         0         0
         0         0         0         0         0         0         0         0
         0         0         0         0         0         0         0         0
         0         0         0         0         0         0         0         0
         0         0         0         0         0         0         0         0
         0         0         0         0         0         0         0         0
         0         0         0         0         0         0         0         0
         0         0         0         0         0         0         0         0
         0         0         0         0         0         0         0         0
         0         0         0         0         0         0         0         0
         0         0         0         0         0         0         0         0
         0         0         0         0         0         0         0         0
         0         0         0         0         0         0         0         0
         0         0         0         0         0         0         0         0
         0         0         0         0         0         0         0         0
         0         0         0         0         0         0         0         0
         0         0         0         0         0         0         0         0
         0         0         0         0         0         0         0         0
         0         0         0         0         0         0         0         0
         0         0         0         0         0         0         0         0
         0         0         0         0         0         0         0         0
         0         0         0         0         0         0         0         0
         0         0         0         0         0         0         0         0
         0         0         0         0         0         0         0         0
         0         0         0         0         0         0         0         0
         0         0         0         0         0         0         0         0
         0         0         0         0         0         0         0         0
         0         0         0         0         0         0         0         0
         0         0         0         0         0         0         0         0
         0         0         0         0         0         0         0         0
         0         0         0         0         0         0         0         0
         0         0         0         0         0         0         0         0
         0         0         0         0         0         0         0         0
         0         0         0         0         0         0         0         0
         0         0         0         0         0         0         0         0
         0         0         0         0         0         0         0         0
         0         0         0         0         0         0         0         0
         0         0         0         0         0         0         0         0
         0         0         0         0         0         0         0         0
         0         0         0         0         0         0         0         0
         0         0         0         0         0         0         0         0
         0         0         0         0         0         0         0         0
         0         0         0         0         0         0         0         0
         0         0         0         0         0         0         0         0
         0         0         0         0         0         0         0         0
         0         0         0         0         0         0         0         0
         0         0         0         0         0         0         0         0
         0         0         0         0         0         0         0         0
         0         0         0         0         0         0         0         0
         0         0         0         0         0         0         0         0
         0         0         0         0         0         0         0         0
         0         0         0         0         0         0         0         0
         0         0         0         0         0         0         0         0
         0         0         0         0         0         0         0         0
         0         0         0         0         0         0         0         0
         0         0         0         0         0         0         0         0
         0         0         0         0         0         0         0         0
         0         0         0         0         0         0         0         0
         0         0         0         0         0         0         0         0
         0         0         0         0         0         0         0         0
         0         0         0         0         0         0         0         0
         0         0         0         0         0         0         0         0
         0         0         0         0         0         0         0         0
         0         0         0         0         0         0         0         0
         0         0         0         0         0         0         0         0
         0         0         0         0         0         0         0         0
         0         0         0         0         0         0         0         0
         0         0         0         0         0         0         0         0
         0         0         0         0         0         0         0         0
         0         0         0         0         0         0         0         0
         0         0         0         0         0         0         0         0
         0         0         0         0         0         0         0         0
         0         0         0         0         0         0         0         0
         0         0         0         0         0         0         0         0
         0         0         0         0         0         0         0         0
         0         0         0         0         0         0         0         0
         0         0         0         0         0         0         0         0
         0         0         0         0         0         0         0         0
         0         0         0         0         0         0         0         0
         0         0         0         0         0         0         0         0
         0         0         0         0         0         0         0         0
         0         0         0         0         0         0         0         0
         0         0         0         0         0         0         0         0
         0         0         0         0         0         0         0         0
         0         0         0         0         0         0         0         0
         0         0         0         0         0         0         0         0
         0         0         0         0         0         0         0         0
         0         0         0         0         0         0         0         0
         0         0         0         0         0         0         0         0
         0         0         0         0         0         0         0         0
         0         0         0         0         0         0         0         0
         0         0         0         0         0         0         0         0
         0         0         0         0         0         0         0         0
         0         0         0         0         0         0         0         0
         0         0         0         0         0         0         0         0
         0         0         0         0         0         0         0         0
         0         0         0         0         0         0         0         0
         0         0         0         0         0         0         0         0
         0         0         0         0         0         0         0         0
         0         0         0         0         0         0         0         0
         0         0         0         0         0         0         0         0
         0         0         0         0         0         0         0         0
         0         0         0         0         0         0         0         0
         0         0         0         0         0         0         0         0
         0         0         0         0         0         0         0         0
         0         0         0         0         0         0         0         0
         0         0         0         0         0         0         0         0
         0         0         0         0         0         0         0         0
         0         0         0         0         0         0         0         0
         0         0         0         0         0         0         0         0
         0         0         0         0         0         0         0         0
         0         0         0         0         0         0         0         0
         0         0         0         0         0         0         0         0
         0         0         0         0         0         0         0         0
         0         0         0         0         0         0         0         0
         0         0         0         0         0         0         0         0
         0         0         0         0         0         0         0         0
         0         0         0         0         0         0         0         0
         0         0         0         0         0         0         0         0
         0         0         0         0         0         0         0         0
         0         0         0         0         0         0         0         0
         0         0         0         0         0         0         0         0
         0         0         0         0         0         0         0         0
         0         0         0         0         0         0         0         0
         0         0         0         0         0         0         0         0
         0         0         0         0         0         0         0         0
         0         0         0         0         0         0         0         0
         0         0         0         0         0         0         0         0
         0         0         0         0         0         0         0         0
         0         0         0         0         0         0         0         0
         0         0         0         0         0         0         0         0
         0         0         0         0         0         0         0         0
         0         0         0         0         0         0         0         0
         0         0         0         0         0         0         0         0
         0         0         0         0         0         0         0         0
         0         0         0         0         0         0         0         0
         0         0         0         0         0         0         0         0
         0         0         0         0         0         0         0         0
         0         0         0         0         0         0         0         0
         0         0         0         0         0         0         0         0
         0         0         0         0         0         0         0         0
         0         0         0         0         0         0         0         0
         0         0         0         0         0         0         0         0
         0         0         0         0         0         0         0         0
         0         0         0         0         0         0         0         0
         0         0         0         0         0         0         0         0
         0         0         0         0         0         0         0         0
         0         0         0         0         0         0         0         0
         0         0         0         0         0         0         0         0
         0         0         0         0         0         0         0         0
         0         0         0         0         0         0         0         0
         0         0         0         0         0         0         0         0
         0         0         0         0         0         0         0         0
         0         0         0         0         0         0         0         0
         0         0         0         0         0         0         0         0
         0         0         0         0         0         0         0         0
         0         0         0         0         0         0         0         0
         0         0         0         0         0         0         0         0
         0         0         0         0         0         0         0         0
         0         0         0         0         0         0         0         0
         0         0         0         0         0         0         0         0
         0         0         0         0         0         0         0         0
         0         0         0         0         0         0         0         0
         0         0         0         0         0         0         0         0
         0         0         0         0         0         0         0         0
         0         0         0         0         0         0         0         0
         0         0         0         0         0         0         0         0
         0         0         0         0         0         0         0         0
         0         0         0         0         0         0         0         0
         0         0         0         0         0         0         0         0
         0         0         0         0         0         0         0         0
         0         0         0         0         0         0         0         0
         0         0         0         0         0         0         0         0
         0         0         0         0         0         0         0         0
         0         0         0         0         0         0         0         0
         0         0         0         0         0         0         0         0
         0         0         0         0         0         0         0         0
         0         0         0         0         0         0         0         0
         0         0         0         0         0         0         0         0
         0         0         0         0         0         0         0         0
         0         0         0         0         0         0         0         0
         0         0         0         0         0         0         0         0
         0         0         0         0         0         0         0         0
         0         0         0         0         0         0         0         0
         0         0         0         0         0         0         0         0
         0         0         0         0         0         0         0         0
         0         0         0         0         0         0         0         0
         0         0         0         0         0         0         0         0
         0         0         0         0         0         0         0         0
         0         0         0         0         0         0         0         0
         0         0         0         0         0         0         0         0
         0         0         0         0         0         0         0         0
         0         0         0         0         0         0         0         0
         0         0         0         0         0         0         0         0
         0         0         0         0         0         0         0         0
         0         0         0         0         0         0         0         0
         0         0         0         0         0         0         0         0
         0         0         0         0         0         0         0         0
         0         0         0         0         0         0         0         0
         0         0         0         0         0         0         0         0
         0         0         0         0         0         0         0         0
         0         0         0         0         0         0         0         0
         0         0         0         0         0         0         0         0
         0         0         0         0         0         0         0         0
         0         0         0         0         0         0         0         0
         0         0         0         0         0         0         0         0
         0         0         0         0         0         0         0         0
         0         0         0         0         0         0         0         0
         0         0         0         0         0         0         0         0
         0         0         0         0         0         0         0         0
         0         0         0         0         0         0         0         0
         0         0         0         0         0         0         0         0
         0         0         0         0         0         0         0         0
         0         0         0         0         0         0         0         0
         0         0         0         0         0         0         0         0
         0         0         0         0         0         0         0         0
         0         0         0         0         0         0         0         0
         0         0         0         0         0         0         0         0
         0         0         0         0         0         0         0         0
         0         0         0         0         0         0         0         0
         0         0         0         0         0         0         0         0
         0         0         0         0         0         0         0         0
         0         0         0         0         0         0         0         0
         0         0         0         0         0         0         0         0
         0         0         0         0         0         0         0         0
         0         0         0         0         0         0         0         0
         0         0         0         0         0         0         0         0
         0         0         0         0         0         0         0         0
         0         0         0         0         0         0         0         0
         0         0         0         0         0         0         0         0
         0         0         0         0         0         0         0         0
         0         0         0         0         0         0         0         0
         0         0         0         0         0         0         0         0
         0         0         0         0         0         0         0         0
         0         0         0         0         0         0         0         0
         0         0         0         0         0         0         0         0
         0         0         0         0         0         0         0         0
         0         0         0         0         0         0         0         0
         0         0         0         0         0         0         0         0
         0         0         0         0         0         0         0         0
         0         0         0         0         0         0         0         0
         0         0         0         0         0         0         0         0
         0         0         0         0         0         0         0         0
         0         0         0         0         0         0         0         0
         0         0         0         0         0         0         0         0
         0         0         0         0         0         0         0         0
         0         0         0         0         0         0         0         0
         0         0         0         0         0         0         0         0
         0         0         0         0         0         0         0         0
         0         0         0         0         0         0         0         0
         0         0         0         0         0         0         0         0
         0         0         0         0         0         0         0         0
         0         0         0         0         0         0         0         0
         0         0         0         0         0         0         0         0
         0         0         0         0         0         0         0         0
         0         0         0         0         0         0         0         0
         0         0         0         0         0         0         0         0
         0         0         0         0         0         0         0         0
         0         0         0         0         0         0         0         0
         0         0         0         0         0         0         0         0
         0         0         0         0         0         0         0         0
         0         0         0         0         0         0         0         0
         0         0         0         0         0         0         0         0
         0         0         0         0         0         0         0         0
         0         0         0         0         0         0         0         0
         0         0         0         0         0         0         0         0
         0         0         0         0         0         0         0         0
         0         0         0         0         0         0         0         0
         0         0         0         0         0         0         0         0
         0         0         0         0         0         0         0         0
         0         0         0         0         0         0         0         0
         0         0         0         0         0         0         0         0
         0         0         0         0         0         0         0         0
         0         0         0         0         0         0         0         0
         0         0         0         0         0         0         0         0
         0         0         0         0         0         0         0         0
         0         0         0         0         0         0         0         0
         0         0         0         0         0         0         0         0
         0         0         0         0         0         0         0         0
         0         0         0         0         0         0         0         0
         0         0         0         0         0         0         0         0
         0         0         0         0         0         0         0         0
         0         0         0         0         0         0         0         0
         0         0         0         0         0         0         0         0
         0         0         0         0         0         0         0         0
         0         0         0         0         0         0         0         0
         0         0         0         0         0         0         0         0
         0         0         0         0         0         0         0         0
         0         0         0         0         0         0         0         0
         0         0         0         0         0         0         0         0
         0         0         0         0         0         0         0         0
         0         0         0         0         0         0         0         0
         0         0         0         0         0         0         0         0
         0         0         0         0         0         0         0         0
         0         0         0         0         0         0         0         0
         0         0         0         0         0         0         0         0
         0         0         0         0         0         0         0         0
         0         0         0         0         0         0         0         0
         0         0         0         0         0         0         0         0
         0         0         0         0         0         0         0         0
         0         0         0         0         0         0         0         0
         0         0         0         0         0         0         0         0
         0         0         0         0         0         0         0         0
         0         0         0         0         0         0         0         0
         0         0         0         0         0         0         0         0
         0         0         0         0         0         0         0         0
         0         0         0         0         0         0         0         0
         0         0         0         0         0         0         0         0
         0         0         0         0         0         0         0         0
         0         0         0         0         0         0         0         0
         0         0         0         0         0         0         0         0
         0         0         0         0         0         0         0         0
         0         0         0         0         0         0         0         0
         0         0         0         0         0         0         0         0
         0         0         0         0         0         0         0         0
         0         0         0         0         0         0         0         0
         0         0         0         0         0         0         0         0
         0         0         0         0         0         0         0         0
         0         0         0         0         0         0         0         0
         0         0         0         0         0         0         0         0
         0         0         0         0         0         0         0         0
         0         0         0         0         0         0         0         0
         0         0         0         0         0         0         0         0
         0         0         0         0         0         0         0         0
         0         0         0         0         0         0         0         0
         0         0         0         0         0         0         0         0
         0         0         0         0         0         0         0         0
         0         0         0         0         0         0         0         0
         0         0         0         0         0         0         0         0
         0         0         0         0         0         0         0         0
         0         0         0         0         0         0         0         0
         0         0         0         0         0         0         0         0
         0         0         0         0         0         0         0         0
         0         0         0         0         0         0         0         0
         0         0         0         0         0         0         0         0
         0         0         0         0         0         0         0         0
         0         0         0         0         0         0         0         0
         0         0         0         0         0         0         0         0
         0         0         0         0         0         0         0         0
         0         0         0         0         0         0         0         0
         0         0         0         0         0         0         0         0
         0         0         0         0         0         0         0         0
         0         0         0         0         0         0         0         0
         0         0         0         0         0         0         0         0
         0         0         0         0         0         0         0         0
         0         0         0         0         0         0         0         0
         0         0         0         0         0         0         0         0
         0         0         0         0         0         0         0         0
         0         0         0         0         0         0         0         0
         0         0         0         0         0         0         0         0
         0         0         0         0         0         0         0         0
         0         0         0         0         0         0         0         0
         0         0         0         0         0         0         0         0
         0         0         0         0         0         0         0         0
         0         0         0         0         0         0         0         0
         0         0         0         0         0         0         0         0
         0         0         0         0         0         0         0         0
         0         0         0         0         0         0         0         0
         0         0         0         0         0         0         0         0
         0         0         0         0         0         0         0         0
         0         0         0         0         0         0         0         0
         0         0         0         0         0         0         0         0
         0         0         0         0         0         0         0         0
         0         0         0         0         0         0         0         0
         0         0         0         0         0         0         0         0
         0         0         0         0         0         0         0         0
         0         0         0         0         0         0         0         0
         0         0         0         0         0         0         0         0
         0         0         0         0         0         0         0         0
         0         0         0         0         0         0         0         0
         0         0         0         0         0         0         0         0
         0         0         0         0         0         0         0         0
         0         0         0         0         0         0         0         0
         0         0         0         0         0         0         0         0
         0         0         0         0         0         0         0         0
         0         0         0         0         0         0         0         0
         0         0         0         0         0         0         0         0
         0         0         0         0         0         0         0         0
         0         0         0         0         0         0         0         0
         0         0         0         0         0         0         0         0
         0         0         0         0         0         0         0         0
         0         0         0         0         0         0         0         0
         0         0         0         0         0         0         0         0
         0         0         0         0         0         0         0         0
         0         0         0         0         0         0         0         0
         0         0         0         0         0         0         0         0
         0         0         0         0         0         0         0         0
         0         0         0         0         0         0         0         0
         0         0         0         0         0         0         0         0
         0         0         0         0         0         0         0         0
         0         0         0         0         0         0         0         0
         0         0         0         0         0         0         0         0
         0         0         0         0         0         0         0         0
         0         0         0         0         0         0         0         0
         0         0         0         0         0         0         0         0
         0         0         0         0         0         0         0         0
         0         0         0         0         0         0         0         0
         0         0         0         0         0         0         0         0
         0         0         0         0         0         0         0         0
         0         0         0         0         0         0         0         0
         0         0         0         0         0         0         0         0
         0         0         0         0         0         0         0         0
         0         0         0         0         0         0         0         0
         0         0         0         0         0         0         0         0
         0         0         0         0         0         0         0         0
         0         0         0         0         0         0         0         0
         0         0         0         0         0         0         0         0
         0         0         0         0         0         0         0         0
         0         0         0         0         0         0         0         0
         0         0         0         0         0         0         0         0
         0         0         0         0         0         0         0         0
         0         0         0         0         0         0         0         0
         0         0         0         0         0         0         0         0
         0         0         0         0         0         0         0         0
         0         0         0         0         0         0         0         0
         0         0         0         0         0         0         0         0
         0         0         0         0         0         0         0         0
         0         0         0         0         0         0         0         0
         0         0         0         0         0         0         0         0
         0         0         0         0         0         0         0         0
         0         0         0         0         0         0         0         0
         0         0         0         0         0         0         0         0
         0         0         0         0         0         0         0         0
         0         0         0         0         0         0         0         0
         0         0         0         0         0         0         0         0
         0         0         0         0         0         0         0         0
         0         0         0         0         0         0         0         0
         0         0         0         0         0         0         0         0
         0         0         0         0         0         0         0         0
         0         0         0         0         0         0         0         0
         0         0         0         0         0         0         0         0
         0         0         0         0         0         0         0         0
         0         0         0         0         0         0         0         0
         0         0         0         0         0         0         0         0
         0         0         0         0         0         0         0         0
         0         0         0         0         0         0         0         0
         0         0         0         0         0         0         0         0
         0         0         0         0         0         0         0         0
         0         0         0         0         0         0         0         0
         0         0         0         0         0         0         0         0
         0         0         0         0         0         0         0         0
         0         0         0         0         0         0         0         0
         0         0         0         0         0         0         0         0
         0         0         0         0         0         0         0         0
         0         0         0         0         0         0         0         0
         0         0         0         0         0         0         0         0
         0         0         0         0         0         0         0         0
         0         0         0         0         0         0         0         0
         0         0         0         0         0         0         0         0
         0         0         0         0         0         0         0         0
         0         0         0         0         0         0         0         0
         0         0         0         0         0         0         0         0
         0         0         0         0         0         0         0         0
         0         0         0         0         0         0         0         0
         0         0         0         0         0         0         0         0
         0         0         0         0         0         0         0         0
         0         0         0         0         0         0         0         0
         0         0         0         0         0         0         0         0
         0         0         0         0         0         0         0         0
         0         0         0         0         0         0         0         0
         0         0         0         0         0         0         0         0
         0         0         0         0         0         0         0         0
         0         0         0         0         0         0         0         0
         0         0         0         0         0         0         0         0
         0         0         0         0         0         0         0         0
         0         0         0         0         0         0         0         0
         0         0         0         0         0         0         0         0
         0         0         0         0         0         0         0         0
         0         0         0         0         0         0         0         0
         0         0         0         0         0         0         0         0
         0         0         0         0         0         0         0         0
         0         0         0         0         0         0         0         0
         0         0         0         0         0         0         0         0
         0         0         0         0         0         0         0         0
         0         0         0         0         0         0         0         0
         0         0         0         0         0         0         0         0
         0         0         0         0         0         0         0         0
         0         0         0         0         0         0         0         0
         0         0         0         0         0         0         0         0
         0         0         0         0         0         0         0         0
         0         0         0         0         0         0         0         0
         0         0         0         0         0         0         0         0
         0         0         0         0         0         0         0         0
         0         0         0         0         0         0         0         0
         0         0         0         0         0         0         0         0
         0         0         0         0         0         0         0         0
         0         0         0         0         0         0         0         0
         0         0         0         0         0         0         0         0
         0         0         0         0         0         0         0         0
         0         0         0         0         0         0         0         0
         0         0         0         0         0         0         0         0
         0         0         0         0         0         0         0         0
         0         0         0         0         0         0         0         0
         0         0         0         0         0         0         0         0
         0         0         0         0         0         0         0         0
         0         0         0         0         0         0         0         0
         0         0         0         0         0         0         0         0
         0         0         0         0         0         0         0         0
         0         0         0         0         0         0         0         0
         0         0         0         0         0         0         0         0
         0         0         0         0         0         0         0         0
         0         0         0         0         0         0         0         0
         0         0         0         0         0         0         0         0
         0         0         0         0         0         0         0         0
         0         0         0         0         0         0         0         0
         0         0         0         0         0         0         0         0
         0         0         0         0         0         0         0         0
         0         0         0         0         0         0         0         0
         0         0         0         0         0         0         0         0
         0         0         0         0         0         0         0         0
         0         0         0         0         0         0         0         0
         0         0         0         0         0         0         0         0
         0         0         0         0         0         0         0         0
         0         0         0         0         0         0         0         0
         0         0         0         0         0         0         0         0
         0         0         0         0         0         0         0         0
         0         0         0         0         0         0         0         0
         0         0         0         0         0         0         0         0
         0         0         0         0         0         0         0         0
         0         0         0         0         0         0         0         0
         0         0         0         0         0         0         0         0
         0         0         0         0         0         0         0         0
         0         0         0         0         0         0         0         0
         0         0         0         0         0         0         0         0
         0         0         0         0         0         0         0         0
         0         0         0         0         0         0         0         0
         0         0         0         0         0         0         0         0
         0         0         0         0         0         0         0         0
         0         0         0         0         0         0         0         0
         0         0         0         0         0         0         0         0
         0         0         0         0         0         0         0         0
         0         0         0         0         0         0         0         0
         0         0         0         0         0         0         0         0
         0         0         0         0         0         0         0         0
         0         0         0         0         0         0         0         0
         0         0         0         0         0         0         0         0
         0         0         0         0         0         0         0         0
         0         0         0         0         0         0         0         0
         0         0         0         0         0         0         0         0
         0         0         0         0         0         0         0         0
         0         0         0         0         0         0         0         0
         0         0         0         0         0         0         0         0
         0         0         0         0         0         0         0         0
         0         0         0         0         0         0         0         0
         0         0         0         0         0         0         0         0
         0         0         0         0         0         0         0         0
         0         0         0         0         0         0         0         0
         0         0         0         0         0         0         0         0
         0         0         0         0         0         0         0         0
         0         0         0         0         0         0         0         0
         0         0         0         0         0         0         0         0
         0         0         0         0         0         0         0         0
         0         0         0         0         0         0         0         0
         0         0         0         0         0         0         0         0
         0         0         0         0         0         0         0         0
         0         0         0         0         0         0         0         0
         0         0         0         0         0         0         0         0
         0         0         0         0         0         0         0         0
         0         0         0         0         0         0         0         0
         0         0         0         0         0         0         0         0
         0         0         0         0         0         0         0         0
         0         0         0         0         0         0         0         0
         0         0         0         0         0         0         0         0
         0         0         0         0         0         0         0         0
         0         0         0         0         0         0         0         0
         0         0         0         0         0         0         0         0
         0         0         0         0         0         0         0         0
         0         0         0         0         0         0         0         0
         0         0         0         0         0         0         0         0
         0         0         0         0         0         0         0         0
         0         0         0         0         0         0         0         0
         0         0         0         0         0         0         0         0
         0         0         0         0         0         0         0         0
         0         0         0         0         0         0         0         0
         0         0         0         0         0         0         0         0
         0         0         0         0         0         0         0         0
         0         0         0         0         0         0         0         0
         0         0         0         0         0         0         0         0
         0         0         0         0         0         0         0         0
         0         0         0         0         0         0         0         0
         0         0         0         0         0         0         0         0
         0         0         0         0         0         0         0         0
         0         0         0         0         0         0         0         0
         0         0         0         0         0         0         0         0
         0         0         0         0         0         0         0         0
         0         0         0         0         0         0         0         0
         0         0         0         0         0         0         0         0
         0         0         0         0         0         0         0         0
         0         0         0         0         0         0         0         0
         0         0         0         0         0         0         0         0
         0         0         0         0         0         0         0         0
         0         0         0         0         0         0         0         0
         0         0         0         0         0         0         0         0
         0         0         0         0         0         0         0         0
         0         0         0         0         0         0         0         0
         0         0         0         0         0         0         0         0
         0         0         0         0         0         0         0         0
         0         0         0         0         0         0         0         0
         0         0         0         0         0         0         0         0
         0         0         0         0         0         0         0         0
         0         0         0         0         0         0         0         0
         0         0         0         0         0         0         0         0
         0         0         0         0         0         0         0         0
         0         0         0         0         0         0         0         0
         0         0         0         0         0         0         0         0
         0         0         0         0         0         0         0         0
         0         0         0         0         0         0         0         0
         0         0         0         0         0         0         0         0
         0         0         0         0         0         0         0         0
         0         0         0         0         0         0         0         0
         0         0         0         0         0         0         0         0
         0         0         0         0         0         0         0         0
         0         0         0         0         0         0         0         0
         0         0         0         0         0         0         0         0
         0         0         0         0         0         0         0         0
         0         0         0         0         0         0         0         0
         0         0         0         0         0         0         0         0
         0         0         0         0         0         0         0         0
         0         0         0         0         0         0         0         0
         0         0         0         0         0         0         0         0
         0         0         0         0         0         0         0         0
         0         0         0         0         0         0         0         0
         0         0         0         0         0         0         0         0
         0         0         0         0         0         0         0         0
         0         0         0         0         0         0         0         0
         0         0         0         0         0         0         0         0
         0         0         0         0         0         0         0         0
         0         0         0         0         0         0         0         0
         0         0         0         0         0         0         0         0
         0         0         0         0         0         0         0         0
         0         0         0         0         0         0         0         0
         0         0         0         0         0         0         0         0
         0         0         0         0         0         0         0         0
         0         0         0         0         0         0         0         0
         0         0         0         0         0         0         0         0
         0         0         0         0         0         0         0         0
         0         0         0         0         0         0         0         0
         0         0         0         0         0         0         0         0
         0         0         0         0         0         0         0         0
         0         0         0         0         0         0         0         0
         0         0         0         0         0         0         0         0
         0         0         0         0         0         0         0         0
         0         0         0         0         0         0         0         0
         0         0         0         0         0         0         0         0
         0         0         0         0         0         0         0         0
         0         0         0         0         0         0         0         0
         0         0         0         0         0         0         0         0
         0         0         0         0         0         0         0         0
         0         0         0         0         0         0         0         0
         0         0         0         0         0         0         0         0
         0         0         0         0         0         0         0         0
         0         0         0         0         0         0         0         0
         0         0         0         0         0         0         0         0
         0         0         0         0         0         0         0         0
         0         0         0         0         0         0         0         0
         0         0         0         0         0         0         0         0
         0         0         0         0         0         0         0         0
         0         0         0         0         0         0         0         0
         0         0         0         0         0         0         0         0
         0         0         0         0         0         0         0         0
         0         0         0         0         0         0         0         0
         0         0         0         0         0         0         0         0
         0         0         0         0         0         0         0         0
         0         0         0         0         0         0         0         0
         0         0         0         0         0         0         0         0
         0         0         0         0         0         0         0         0
         0         0         0         0         0         0         0         0
         0         0         0         0         0         0         0         0
         0         0         0         0         0         0         0         0
         0         0         0         0         0         0         0         0
         0         0         0         0         0         0         0         0
         0         0         0         0         0         0         0         0
         0         0         0         0         0         0         0         0
         0         0         0         0         0         0         0         0
         0         0         0         0         0         0         0         0
         0         0         0         0         0         0         0         0
         0         0         0         0         0         0         0         0
         0         0         0         0         0         0         0         0
         0         0         0         0         0         0         0         0
         0         0         0         0         0         0         0         0
         0         0         0         0         0         0         0         0
         0         0         0         0         0         0         0         0
         0         0         0         0         0         0         0         0
         0         0         0         0         0         0         0         0
         0         0         0         0         0         0         0         0
         0         0         0         0         0         0         0         0
         0         0         0         0         0         0         0         0
         0         0         0         0         0         0         0         0
         0         0         0         0         0         0         0         0
         0         0         0         0         0         0         0         0
         0         0         0         0         0         0         0         0
         0         0         0         0         0         0         0         0
         0         0         0         0         0         0         0         0
         0         0         0         0         0         0         0         0
         0         0         0         0         0         0         0         0
         0         0         0         0         0         0         0         0
         0         0         0         0         0         0         0         0
         0         0         0         0         0         0         0         0
         0         0         0         0         0         0         0         0
         0         0         0         0         0         0         0         0
         0         0         0         0         0         0         0         0
         0         0         0         0         0         0         0         0
         0         0         0         0         0         0         0         0
         0         0         0         0         0         0         0         0
         0         0         0         0         0         0         0         0
         0         0         0         0         0         0         0         0
         0         0         0         0         0         0         0         0
         0         0         0         0         0         0         0         0
         0         0         0         0         0         0         0         0
         0         0         0         0         0         0         0         0
         0         0         0         0         0         0         0         0
         0         0         0         0         0         0         0         0
         0         0         0         0         0         0         0         0
         0         0         0         0         0         0         0         0
         0         0         0         0         0         0         0         0
         0         0         0         0         0         0         0         0
         0         0         0         0         0         0         0         0
         0         0         0         0         0         0         0         0
         0         0         0         0         0         0         0         0
         0         0         0         0         0         0         0         0
         0         0         0         0         0         0         0         0
         0         0         0         0         0         0         0         0
         0         0         0         0         0         0         0         0
         0         0         0         0         0         0         0         0
         0         0         0         0         0         0         0         0
         0         0         0         0         0         0         0         0
         0         0         0         0         0         0         0         0
         0         0         0         0         0         0         0         0
         0         0         0         0         0         0         0         0
         0         0         0         0         0         0         0         0
         0         0         0         0         0         0         0         0
         0         0         0         0         0         0         0         0
         0         0         0         0         0         0         0         0
         0         0         0         0         0         0         0         0
         0         0         0         0         0         0         0         0
         0         0         0         0         0         0         0         0
         0         0         0         0         0         0         0         0
         0         0         0         0         0         0         0         0
         0         0         0         0         0         0         0         0
         0         0         0         0         0         0         0         0
         0         0         0         0         0         0         0         0
         0         0         0         0         0         0         0         0
         0         0         0         0         0         0         0         0
         0         0         0         0         0         0         0         0
         0         0         0         0         0         0         0         0
         0         0         0         0         0         0         0         0
         0         0         0         0         0         0         0         0
         0         0         0         0         0         0         0         0
         0         0         0         0         0         0         0         0
         0         0         0         0         0         0         0         0
         0         0         0         0         0         0         0         0
         0         0         0         0         0         0         0         0
         0         0         0         0         0         0         0         0
         0         0         0         0         0         0         0         0
         0         0         0         0         0         0         0         0
         0         0         0         0         0         0         0         0
         0         0         0         0         0         0         0         0
         0         0         0         0         0         0         0         0
         0         0         0         0         0         0         0         0
         0         0         0         0         0         0         0         0
         0         0         0         0         0         0         0         0
         0         0         0         0         0         0         0         0
         0         0         0         0         0         0         0         0
         0         0         0         0         0         0         0         0
         0         0         0         0         0         0         0         0
         0         0         0         0         0         0         0         0
         0         0         0         0         0         0         0         0
         0         0         0         0         0         0         0         0
         0         0         0         0         0         0         0         0
         0         0         0         0         0         0         0         0
         0         0         0         0         0         0         0         0
         0         0         0         0         0         0         0         0
         0         0         0         0         0         0         0         0
         0         0         0         0         0         0         0         0
         0         0         0         0         0         0         0         0
         0         0         0         0         0         0         0         0
         0         0         0         0         0         0         0         0
         0         0         0         0         0         0         0         0
         0         0         0         0         0         0         0         0
         0         0         0         0         0         0         0         0
         0         0         0         0         0         0         0         0
         0         0         0         0         0         0         0         0
         0         0         0         0         0         0         0         0
         0         0         0         0         0         0         0         0
         0         0         0         0
         0         0         0         0         0         0         0         0
         0         0         0         0         0         0         0         0
         0         0         0         0         0         0         0         0
         0         0         0         0         0         0         0         0
         0         0         0         0         0         0         0         0
         0         0         0         0         0         0         0         0
         0         0         0         0         0         0         0         0
         0         0         0         0         0         0         0         0
         0         0         0         0         0         0         0         0
         0         0         0         0         0         0         0         0
         0         0         0         0         0         0         0         0
         0         0         0         0         0         0         0         0
         0         0         0         0         0         0         0         0
         0         0         0         0         0         0         0         0
         0         0         0         0         0         0         0         0
         0         0         0         0         0         0         0         0
         0         0         0         0         0         0         0         0
         0         0         0         0         0         0         0         0
         0         0         0         0         0         0         0         0
         0         0         0         0         0         0         0         0
         0         0         0         0         0         0         0         0
         0         0         0         0         0         0         0         0
         0         0         0         0         0         0         0         0
         0         0         0         0         0         0         0         0
         0         0         0         0         0         0         0         0
         0         0         0         0         0         0         0         0
         0         0         0         0         0         0         0         0
         0         0         0         0         0         0         0         0
         0         0         0         0         0         0         0         0
         0         0         0         0         0         0         0         0
         0         0         0         0         0         0         0         0
         0         0         0         0         0         0         0         0
         0         0         0         0         0         0         0         0
         0         0         0         0         0         0         0         0
         0         0         0         0         0         0         0         0
         0         0         0         0         0         0         0         0
         0         0         0         0         0         0         0         0
         0         0         0         0         0         0         0         0
         0         0         0         0         0         0         0         0
         0         0         0         0         0         0         0         0
         0         0         0         0         0         0         0         0
         0         0         0         0         0         0         0         0
         0         0         0         0         0         0         0         0
         0         0         0         0         0         0         0         0
         0         0         0         0         0         0         0         0
         0         0         0         0         0         0         0         0
         0         0         0         0         0         0         0         0
         0         0         0         0         0         0         0         0
         0         0         0         0         0         0         0         0
         0         0         0         0         0         0         0         0
         0         0         0         0         0         0         0         0
         0         0         0         0         0         0         0         0
         0         0         0         0         0         0         0         0
         0         0         0         0         0         0         0         0
         0         0         0         0         0         0         0         0
         0         0         0         0         0         0         0         0
         0         0         0         0         0         0         0         0
         0         0         0         0         0         0         0         0
         0         0         0         0         0         0         0         0
         0         0         0         0         0         0         0         0
         0         0         0         0         0         0         0         0
         0         0         0         0         0         0         0         0
         0         0         0         0         0         0         0         0
         0         0         0         0         0         0         0         0
         0         0         0         0         0         0         0         0
         0         0         0         0         0         0         0         0
         0         0         0         0         0         0         0         0
         0         0         0         0         0         0         0         0
         0         0         0         0         0         0         0         0
         0         0         0         0         0         0         0         0
         0         0         0         0         0         0         0         0
         0         0         0         0         0         0         0         0
         0         0         0         0         0         0         0         0
         0         0         0         0         0         0         0         0
         0         0         0         0         0         0         0         0
         0         0         0         0         0         0         0         0
         0         0         0         0         0         0         0         0
         0         0         0         0         0         0         0         0
         0         0         0         0         0         0         0         0
         0         0         0         0         0         0         0         0
         0         0         0         0         0         0         0         0
         0         0         0         0         0         0         0         0
         0         0         0         0         0         0         0         0
         0         0         0         0         0         0         0         0
         0         0         0         0         0         0         0         0
         0         0         0         0         0         0         0         0
         0         0         0         0         0         0         0         0
         0         0         0         0         0         0         0         0
         0         0         0         0         0         0         0         0
         0         0         0         0         0         0         0         0
         0         0         0         0         0         0         0         0
         0         0         0         0         0         0         0         0
         0         0         0         0         0         0         0         0
         0         0         0         0         0         0         0         0
         0         0         0         0         0         0         0         0
         0         0         0         0         0         0         0         0
         0         0         0         0         0         0         0         0
         0         0         0         0         0         0         0         0
         0         0         0         0         0         0         0         0
         0         0         0         0         0         0         0         0
         0         0         0         0         0         0         0         0
         0         0         0         0         0         0         0         0
         0         0         0         0         0         0         0         0
         0         0         0         0         0         0         0         0
         0         0         0         0         0         0         0         0
         0         0         0         0         0         0         0         0
         0         0         0         0         0         0         0         0
         0         0         0         0         0         0         0         0
         0         0         0         0         0         0         0         0
         0         0         0         0         0         0         0         0
         0         0         0         0         0         0         0         0
         0         0         0         0         0         0         0         0
         0         0         0         0         0         0         0         0
         0         0         0         0         0         0         0         0
         0         0         0         0         0         0         0         0
         0         0         0         0         0         0         0         0
         0         0         0         0         0         0         0         0
         0         0         0         0         0         0         0         0
         0         0         0         0         0         0         0         0
         0         0         0         0         0         0         0         0
         0         0         0         0         0         0         0         0
         0         0         0         0         0         0         0         0
         0         0         0         0         0         0         0         0
         0         0         0         0         0         0         0         0
         0         0         0         0         0         0         0         0
         0         0         0         0         0         0         0         0
         0         0         0         0         0         0         0         0
         0         0         0         0         0         0         0         0
         0         0         0         0         0         0         0         0
         0         0         0         0         0         0         0         0
         0         0         0         0         0         0         0         0
         0         0         0         0         0         0         0         0
         0         0         0         0         0         0         0         0
         0         0         0         0         0         0         0         0
         0         0         0         0         0         0         0         0
         0         0         0         0         0         0         0         0
         0         0         0         0         0         0         0         0
         0         0         0         0         0         0         0         0
         0         0         0         0         0         0         0         0
         0         0         0         0         0         0         0         0
         0         0         0         0         0         0         0         0
         0         0         0         0         0         0         0         0
         0         0         0         0         0         0         0         0
         0         0         0         0         0         0         0         0
         0         0         0         0         0         0         0         0
         0         0         0         0         0         0         0         0
         0         0         0         0         0         0         0         0
         0         0         0         0         0         0         0         0
         0         0         0         0         0         0         0         0
         0         0         0         0         0         0         0         0
         0         0         0         0         0         0         0         0
         0         0         0         0         0         0         0         0
         0         0         0         0         0         0         0         0
         0         0         0         0         0         0         0         0
         0         0         0         0         0         0         0         0
         0         0         0         0         0         0         0         0
         0         0         0         0         0         0         0         0
         0         0         0         0         0         0         0         0
         0         0         0         0         0         0         0         0
         0         0         0         0         0         0         0         0
         0         0         0         0         0         0         0         0
         0         0         0         0         0         0         0         0
         0         0         0         0         0         0         0         0
         0         0         0         0         0         0         0         0
         0         0         0         0         0         0         0         0
         0         0         0         0         0         0         0         0
         0         0         0         0         0         0         0         0
         0         0         0         0         0         0         0         0
         0         0         0         0         0         0         0         0
         0         0         0         0         0         0         0         0
         0         0         0         0         0         0         0         0
         0         0         0         0         0         0         0         0
         0         0         0         0         0         0         0         0
         0         0         0         0         0         0         0         0
         0         0         0         0         0         0         0         0
         0         0         0         0         0         0         0         0
         0         0         0         0         0         0         0         0
         0         0         0         0         0         0         0         0
         0         0         0         0         0         0         0         0
         0         0         0         0         0         0         0         0
         0         0         0         0         0         0         0         0
         0         0         0         0         0         0         0         0
         0         0         0         0         0         0         0         0
         0         0         0         0         0         0         0         0
         0         0         0         0         0         0         0         0
         0         0         0         0         0         0         0         0
         0         0         0         0         0         0         0         0
         0         0         0         0         0         0         0         0
         0         0         0         0         0         0         0         0
         0         0         0         0         0         0         0         0
         0         0         0         0         0         0         0         0
         0         0         0         0         0         0         0         0
         0         0         0         0         0         0         0         0
         0         0         0         0         0         0         0         0
         0         0         0         0         0         0         0         0
         0         0         0         0         0         0         0         0
         0         0         0         0         0         0         0         0
         0         0         0         0         0         0         0         0
         0         0         0         0         0         0         0         0
         0         0         0         0         0         0         0         0
         0         0         0         0         0         0         0         0
         0         0         0         0         0         0         0         0
         0         0         0         0         0         0         0         0
         0         0         0         0         0         0         0         0
         0         0         0         0         0         0         0         0
         0         0         0         0         0         0         0         0
         0         0         0         0         0         0         0         0
         0         0         0         0         0         0         0         0
         0         0         0         0         0         0         0         0
         0         0         0         0         0         0         0         0
         0         0         0         0         0         0         0         0
         0         0         0         0         0         0         0         0
         0         0         0         0         0         0         0         0
         0         0         0         0         0         0         0         0
         0         0         0         0         0         0         0         0
         0         0         0         0         0         0         0         0
         0         0         0         0         0         0         0         0
         0         0         0         0         0         0         0         0
         0         0         0         0         0         0         0         0
         0         0         0         0         0         0         0         0
         0         0         0         0         0         0         0         0
         0         0         0         0         0         0         0         0
         0         0         0         0         0         0         0         0
         0         0         0         0         0         0         0         0
         0         0         0         0         0         0         0         0
         0         0         0         0         0         0         0         0
         0         0         0         0         0         0         0         0
         0         0         0         0         0         0         0         0
         0         0         0         0         0         0         0         0
         0         0         0         0         0         0         0         0
         0         0         0         0         0         0         0         0
         0         0         0         0         0         0         0         0
         0         0         0         0         0         0         0         0
         0         0         0         0         0         0         0         0
         0         0         0         0         0         0         0         0
         0         0         0         0         0         0         0         0
         0         0         0         0         0         0         0         0
         0         0         0         0         0         0         0         0
         0         0         0         0         0         0         0         0
         0         0         0         0         0         0         0         0
         0         0         0         0         0         0         0         0
         0         0         0         0         0         0         0         0
         0         0         0         0         0         0         0         0
         0         0         0         0         0         0         0         0
         0         0         0         0         0         0         0         0
         0         0         0         0         0         0         0         0
         0         0         0         0         0         0         0         0
         0         0         0         0         0         0         0         0
         0         0         0         0         0         0         0         0
         0         0         0         0         0         0         0         0
         0         0         0         0         0         0         0         0
         0         0         0         0         0         0         0         0
         0         0         0         0         0         0         0         0
         0         0         0         0         0         0         0         0
         0         0         0         0         0         0         0         0
         0         0         0         0         0         0         0         0
         0         0         0         0         0         0         0         0
         0         0         0         0         0         0         0         0
         0         0         0         0         0         0         0         0
         0         0         0         0         0         0         0         0
         0         0         0         0         0         0         0         0
         0         0         0         0         0         0         0         0
         0         0         0         0         0         0         0         0
         0         0         0         0         0         0         0         0
         0         0         0         0         0         0         0         0
         0         0         0         0         0         0         0         0
         0         0         0         0         0         0         0         0
         0         0         0         0         0         0         0         0
         0         0         0         0         0         0         0         0
         0         0         0         0         0         0         0         0
         0         0         0         0         0         0         0         0
         0         0         0         0         0         0         0         0
         0         0         0         0         0         0         0         0
         0         0         0         0         0         0         0         0
         0         0         0         0         0         0         0         0
         0         0         0         0         0         0         0         0
         0         0         0         0         0         0         0         0
         0         0         0         0         0         0         0         0
         0         0         0         0         0         0         0         0
         0         0         0         0         0         0         0         0
         0         0         0         0         0         0         0         0
         0         0         0         0         0         0         0         0
         0         0         0         0         0         0         0         0
         0         0         0         0         0         0         0         0
         0         0         0         0         0         0         0         0
         0         0         0         0         0         0         0         0
         0         0         0         0         0         0         0         0
         0         0         0         0         0         0         0         0
         0         0         0         0         0         0         0         0
         0         0         0         0         0         0         0         0
         0         0         0         0         0         0         0         0
         0         0         0         0         0         0         0         0
         0         0         0         0         0         0         0         0
         0         0         0         0         0         0         0         0
         0         0         0         0         0         0         0         0
         0         0         0         0         0         0         0         0
         0         0         0         0         0         0         0         0
         0         0         0         0         0         0         0         0
         0         0         0         0         0         0         0         0
         0         0         0         0         0         0         0         0
         0         0         0         0         0         0         0         0
         0         0         0         0         0         0         0         0
         0         0         0         0         0         0         0         0
         0         0         0         0         0         0         0         0
         0         0         0         0         0         0         0         0
         0         0         0         0         0         0         0         0
         0         0         0         0         0         0         0         0
         0         0         0         0         0         0         0         0
         0         0         0         0         0         0         0         0
         0         0         0         0         0         0         0         0
         0         0         0         0         0         0         0         0
         0         0         0         0         0         0         0         0
         0         0         0         0         0         0         0         0
         0         0         0         0         0         0         0         0
         0         0         0         0         0         0         0         0
         0         0         0         0         0         0         0         0
         0         0         0         0         0         0         0         0
         0         0         0         0         0         0         0         0
         0         0         0         0         0         0         0         0
         0         0         0         0         0         0         0         0
         0         0         0         0         0         0         0         0
         0         0         0         0         0         0         0         0
         0         0         0         0         0         0         0         0
         0         0         0         0         0         0         0         0
         0         0         0         0         0         0         0         0
         0         0         0         0         0         0         0         0
         0         0         0         0         0         0         0         0
         0         0         0         0         0         0         0         0
         0         0         0         0         0         0         0         0
         0         0         0         0         0         0         0         0
         0         0         0         0         0         0         0         0
         0         0         0         0         0         0         0         0
         0         0         0         0         0         0         0         0
         0         0         0         0         0         0         0         0
         0         0         0         0         0         0         0         0
         0         0         0         0         0         0         0         0
         0         0         0         0         0         0         0         0
         0         0         0         0         0         0         0         0
         0         0         0         0         0         0         0         0
         0         0         0         0         0         0         0         0
         0         0         0         0         0         0         0         0
         0         0         0         0         0         0         0         0
         0         0         0         0         0         0         0         0
         0         0         0         0         0         0         0         0
         0         0         0         0         0         0         0         0
         0         0         0         0         0         0         0         0
         0         0         0         0         0         0         0         0
         0         0         0         0         0         0         0         0
         0         0         0         0         0         0         0         0
         0         0         0         0         0         0         0         0
         0         0         0         0         0         0         0         0
         0         0         0         0         0         0         0         0
         0         0         0         0         0         0         0         0
         0         0         0         0         0         0         0         0
         0         0         0         0         0         0         0         0
         0         0         0         0         0         0         0         0
         0         0         0         0         0         0         0         0
         0         0         0         0         0         0         0         0
         0         0         0         0         0         0         0         0
         0         0         0         0         0         0         0         0
         0         0         0         0         0         0         0         0
         0         0         0         0         0         0         0         0
         0         0         0         0         0         0         0         0
         0         0         0         0         0         0         0         0
         0         0         0         0         0         0         0         0
         0         0         0         0         0         0         0         0
         0         0         0         0         0         0         0         0
         0         0         0         0         0         0         0         0
         0         0         0         0         0         0         0         0
         0         0         0         0         0         0         0         0
         0         0         0         0         0         0         0         0
         0         0         0         0         0         0         0         0
         0         0         0         0         0         0         0         0
         0         0         0         0         0         0         0         0
         0         0         0         0         0         0         0         0
         0         0         0         0         0         0         0         0
         0         0         0         0         0         0         0         0
         0         0         0         0         0         0         0         0
         0         0         0         0         0         0         0         0
         0         0         0         0         0         0         0         0
         0         0         0         0         0         0         0         0
         0         0         0         0         0         0         0         0
         0         0         0         0         0         0         0         0
         0         0         0         0         0         0         0         0
         0         0         0         0         0         0         0         0
         0         0         0         0         0         0         0         0
         0         0         0         0         0         0         0         0
         0         0         0         0         0         0         0         0
         0         0         0         0         0         0         0         0
         0         0         0         0         0         0         0         0
         0         0         0         0         0         0         0         0
         0         0         0         0         0         0         0         0
         0         0         0         0         0         0         0         0
         0         0         0         0         0         0         0         0
         0         0         0         0         0         0         0         0
         0         0         0         0         0         0         0         0
         0         0         0         0         0         0         0         0
         0         0         0         0         0         0         0         0
         0         0         0         0         0         0         0         0
         0         0         0         0         0         0         0         0
         0         0         0         0         0         0         0         0
         0         0         0         0         0         0         0         0
         0         0         0         0         0         0         0         0
         0         0         0         0         0         0         0         0
         0         0         0         0         0         0         0         0
         0         0         0         0         0         0         0         0
         0         0         0         0         0         0         0         0
         0         0         0         0         0         0         0         0
         0         0         0         0         0         0         0         0
         0         0         0         0         0         0         0         0
         0         0         0         0         0         0         0         0
         0         0         0         0         0         0         0         0
         0         0         0         0         0         0         0         0
         0         0         0         0         0         0         0         0
         0         0         0         0         0         0         0         0
         0         0         0         0         0         0         0         0
         0         0         0         0         0         0         0         0
         0         0         0         0         0         0         0         0
         0         0         0         0         0         0         0         0
         0         0         0         0         0         0         0         0
         0         0         0         0         0         0         0         0
         0         0         0         0         0         0         0         0
         0         0         0         0         0         0         0         0
         0         0         0         0         0         0         0         0
         0         0         0         0         0         0         0         0
         0         0         0         0         0         0         0         0
         0         0         0         0         0         0         0         0
         0         0         0         0         0         0         0         0
         0         0         0         0         0         0         0         0
         0         0         0         0         0         0         0         0
         0         0         0         0         0         0         0         0
         0         0         0         0         0         0         0         0
         0         0         0         0         0         0         0         0
         0         0         0         0         0         0         0         0
         0         0         0         0         0         0         0         0
         0         0         0         0         0         0         0         0
         0         0         0         0         0         0         0         0
         0         0         0         0         0         0         0         0
         0         0         0         0         0         0         0         0
         0         0         0         0         0         0         0         0
         0         0         0         0         0         0         0         0
         0         0         0         0         0         0         0         0
         0         0         0         0         0         0         0         0
         0         0         0         0         0         0         0         0
         0         0         0         0         0         0         0         0
         0         0         0         0         0         0         0         0
         0         0         0         0         0         0         0         0
         0         0         0         0         0         0         0         0
         0         0         0         0         0         0         0         0
         0         0         0         0         0         0         0         0
         0         0         0         0         0         0         0         0
         0         0         0         0         0         0         0         0
         0         0         0         0         0         0         0         0
         0         0         0         0         0         0         0         0
         0         0         0         0         0         0         0         0
         0         0         0         0         0         0         0         0
         0         0         0         0         0         0         0         0
         0         0         0         0         0         0         0         0
         0         0         0         0         0         0         0         0
         0         0         0         0         0         0         0         0
         0         0         0         0         0         0         0         0
         0         0         0         0         0         0         0         0
         0         0         0         0         0         0         0         0
         0         0         0         0         0         0         0         0
         0         0         0         0         0         0         0         0
         0         0         0         0         0         0         0         0
         0         0         0         0         0         0         0         0
         0         0         0         0         0         0         0         0
         0         0         0         0         0         0         0         0
         0         0         0         0         0         0         0         0
         0         0         0         0         0         0         0         0
         0         0         0         0         0         0         0         0
         0         0         0         0         0         0         0         0
         0         0         0         0         0         0         0         0
         0         0         0         0         0         0         0         0
         0         0         0         0         0         0         0         0
         0         0         0         0         0         0         0         0
         0         0         0         0         0         0         0         0
         0         0         0         0         0         0         0         0
         0         0         0         0         0         0         0         0
         0         0         0         0         0         0         0         0
         0         0         0         0         0         0         0         0
         0         0         0         0         0         0         0         0
         0         0         0         0         0         0         0         0
         0         0         0         0         0         0         0         0
         0         0         0         0         0         0         0         0
         0         0         0         0         0         0         0         0
         0         0         0         0         0         0         0         0
         0         0         0         0         0         0         0         0
         0         0         0         0         0         0         0         0
         0         0         0         0         0         0         0         0
         0         0         0         0         0         0         0         0
         0         0         0         0         0         0         0         0
         0         0         0         0         0         0         0         0
         0         0         0         0         0         0         0         0
         0         0         0         0         0         0         0         0
         0         0         0         0         0         0         0         0
         0         0         0         0         0         0         0         0
         0         0         0         0         0         0         0         0
         0         0         0         0         0         0         0         0
         0         0         0         0         0         0         0         0
         0         0         0         0         0         0         0         0
         0         0         0         0         0         0         0         0
         0         0         0         0         0         0         0         0
         0         0         0         0         0         0         0         0
         0         0         0         0         0         0         0         0
         0         0         0         0         0         0         0         0
         0         0         0         0         0         0         0         0
         0         0         0         0         0         0         0         0
         0         0         0         0         0         0         0         0
         0         0         0         0         0         0         0         0
         0         0         0         0         0         0         0         0
         0         0         0         0         0         0         0         0
         0         0         0         0         0         0         0         0
         0         0         0         0         0         0         0         0
         0         0         0         0         0         0         0         0
         0         0         0         0         0         0         0         0
         0         0         0         0         0         0         0         0
         0         0         0         0         0         0         0         0
         0         0         0         0         0         0         0         0
         0         0         0         0         0         0         0         0
         0         0         0         0         0         0         0         0
         0         0         0         0         0         0         0         0
         0         0         0         0         0         0         0         0
         0         0         0         0         0         0         0         0
         0         0         0         0         0         0         0         0
         0         0         0         0         0         0         0         0
         0         0         0         0         0         0         0         0
         0         0         0         0         0         0         0         0
         0         0         0         0         0         0         0         0
         0         0         0         0         0         0         0         0
         0         0         0         0         0         0         0         0
         0         0         0         0         0         0         0         0
         0         0         0         0         0         0         0         0
         0         0         0         0         0         0         0         0
         0         0         0         0         0         0         0         0
         0         0         0         0         0         0         0         0
         0         0         0         0         0         0         0         0
         0         0         0         0         0         0         0         0
         0         0         0         0         0         0         0         0
         0         0         0         0         0         0         0         0
         0         0         0         0         0         0         0         0
         0         0         0         0         0         0         0         0
         0         0         0         0         0         0         0         0
         0         0         0         0         0         0         0         0
         0         0         0         0         0         0         0         0
         0         0         0         0         0         0         0         0
         0         0         0         0         0         0         0         0
         0         0         0         0         0         0         0         0
         0         0         0         0         0         0         0         0
         0         0         0         0         0         0         0         0
         0         0         0         0         0         0         0         0
         0         0         0         0         0         0         0         0
         0         0         0         0         0         0         0         0
         0         0         0         0         0         0         0         0
         0         0         0         0         0         0         0         0
         0         0         0         0         0         0         0         0
         0         0         0         0         0         0         0         0
         0         0         0         0         0         0         0         0
         0         0         0         0         0         0         0         0
         0         0         0         0         0         0         0         0
         0         0         0         0         0         0         0         0
         0         0         0         0         0         0         0         0
         0         0         0         0         0         0         0         0
         0         0         0         0         0         0         0         0
         0         0         0         0         0         0         0         0
         0         0         0         0         0         0         0         0
         0         0         0         0         0         0         0         0
         0         0         0         0         0         0         0         0
         0         0         0         0         0         0         0         0
         0         0         0         0         0         0         0         0
         0         0         0         0         0         0         0         0
         0         0         0         0         0         0         0         0
         0         0         0         0         0         0         0         0
         0         0         0         0         0         0         0         0
         0         0         0         0         0         0         0         0
         0         0         0         0         0         0         0         0
         0         0         0         0         0         0         0         0
         0         0         0         0         0         0         0         0
         0         0         0         0         0         0         0         0
         0         0         0         0         0         0         0         0
         0         0         0         0         0         0         0         0
         0         0         0         0         0         0         0         0
         0         0         0         0         0         0         0         0
         0         0         0         0         0         0         0         0
         0         0         0         0         0         0         0         0
         0         0         0         0         0         0         0         0
         0         0         0         0         0         0         0         0
         0         0         0         0         0         0         0         0
         0         0         0         0         0         0         0         0
         0         0         0         0         0         0         0         0
         0         0         0         0         0         0         0         0
         0         0         0         0         0         0         0         0
         0         0         0         0         0         0         0         0
         0         0         0         0         0         0         0         0
         0         0         0         0         0         0         0         0
         0         0         0         0         0         0         0         0
         0         0         0         0         0         0         0         0
         0         0         0         0         0         0         0         0
         0         0         0         0         0         0         0         0
         0         0         0         0         0         0         0         0
         0         0         0         0         0         0         0         0
         0         0         0         0         0         0         0         0
         0         0         0         0         0         0         0         0
         0         0         0         0         0         0         0         0
         0         0         0         0         0         0         0         0
         0         0         0         0         0         0         0         0
         0         0         0         0         0         0         0         0
         0         0         0         0         0         0         0         0
         0         0         0         0         0         0         0         0
         0         0         0         0         0         0         0         0
         0         0         0         0         0         0         0         0
         0         0         0         0         0         0         0         0
         0         0         0         0         0         0         0         0
         0         0         0         0         0         0         0         0
         0         0         0         0         0         0         0         0
         0         0         0         0         0         0         0         0
         0         0         0         0         0         0         0         0
         0         0         0         0         0         0         0         0
         0         0         0         0         0         0         0         0
         0         0         0         0         0         0         0         0
         0         0         0         0         0         0         0         0
         0         0         0         0         0         0         0         0
         0         0         0         0         0         0         0         0
         0         0         0         0         0         0         0         0
         0         0         0         0         0         0         0         0
         0         0         0         0         0         0         0         0
         0         0         0         0         0         0         0         0
         0         0         0         0         0         0         0         0
         0         0         0         0         0         0         0         0
         0         0         0         0         0         0         0         0
         0         0         0         0         0         0         0         0
         0         0         0         0         0         0         0         0
         0         0         0         0         0         0         0         0
         0         0         0         0         0         0         0         0
         0         0         0         0         0         0         0         0
         0         0         0         0         0         0         0         0
         0         0         0         0         0         0         0         0
         0         0         0         0         0         0         0         0
         0         0         0         0         0         0         0         0
         0         0         0         0         0         0         0         0
         0         0         0         0         0         0         0         0
         0         0         0         0         0         0         0         0
         0         0         0         0         0         0         0         0
         0         0         0         0         0         0         0         0
         0         0         0         0         0         0         0         0
         0         0         0         0         0         0         0         0
         0         0         0         0         0         0         0         0
         0         0         0         0         0         0         0         0
         0         0         0         0         0         0         0         0
         0         0         0         0         0         0         0         0
         0         0         0         0         0         0         0         0
         0         0         0         0         0         0         0         0
         0         0         0         0         0         0         0         0
         0         0         0         0         0         0         0         0
         0         0         0         0         0         0         0         0
         0         0         0         0         0         0         0         0
         0         0         0         0         0         0         0         0
         0         0         0         0         0         0         0         0
         0         0         0         0         0         0         0         0
         0         0         0         0         0         0         0         0
         0         0         0         0         0         0         0         0
         0         0         0         0         0         0         0         0
         0         0         0         0         0         0         0         0
         0         0         0         0         0         0         0         0
         0         0         0         0         0         0         0         0
         0         0         0         0         0         0         0         0
         0         0         0         0         0         0         0         0
         0         0         0         0         0         0         0         0
         0         0         0         0         0         0         0         0
         0         0         0         0         0         0         0         0
         0         0         0         0         0         0         0         0
         0         0         0         0         0         0         0         0
         0         0         0         0         0         0         0         0
         0         0         0         0         0         0         0         0
         0         0         0         0         0         0         0         0
         0         0         0         0         0         0         0         0
         0         0         0         0         0         0         0         0
         0         0         0         0         0         0         0         0
         0         0         0         0         0         0         0         0
         0         0         0         0         0         0         0         0
         0         0         0         0         0         0         0         0
         0         0         0         0         0         0         0         0
         0         0         0         0         0         0         0         0
         0         0         0         0         0         0         0         0
         0         0         0         0         0         0         0         0
         0         0         0         0         0         0         0         0
         0         0         0         0         0         0         0         0
         0         0         0         0         0         0         0         0
         0         0         0         0         0         0         0         0
         0         0         0         0         0         0         0         0
         0         0         0         0         0         0         0         0
         0         0         0         0         0         0         0         0
         0         0         0         0         0         0         0         0
         0         0         0         0         0         0         0         0
         0         0         0         0         0         0         0         0
         0         0         0         0         0         0         0         0
         0         0         0         0         0         0         0         0
         0         0         0         0         0         0         0         0
         0         0         0         0         0         0         0         0
         0         0         0         0         0         0         0         0
         0         0         0         0         0         0         0         0
         0         0         0         0         0         0         0         0
         0         0         0         0         0         0         0         0
         0         0         0         0         0         0         0         0
         0         0         0         0         0         0         0         0
         0         0         0         0         0         0         0         0
         0         0         0         0         0         0         0         0
         0         0         0         0         0         0         0         0
         0         0         0         0         0         0         0         0
         0         0         0         0         0         0         0         0
         0         0         0         0         0         0         0         0
         0         0         0         0         0         0         0         0
         0         0         0         0         0         0         0         0
         0         0         0         0         0         0         0         0
         0         0         0         0         0         0         0         0
         0         0         0         0         0         0         0         0
         0         0         0         0         0         0         0         0
         0         0         0         0         0         0         0         0
         0         0         0         0         0         0         0         0
         0         0         0         0         0         0         0         0
         0         0         0         0         0         0         0         0
         0         0         0         0         0         0         0         0
         0         0         0         0         0         0         0         0
         0         0         0         0         0         0         0         0
         0         0         0         0         0         0         0         0
         0         0         0         0         0         0         0         0
         0         0         0         0         0         0         0         0
         0         0         0         0         0         0         0         0
         0         0         0         0         0         0         0         0
         0         0         0         0         0         0         0         0
         0         0         0         0         0         0         0         0
         0         0         0         0         0         0         0         0
         0         0         0         0         0         0         0         0
         0         0         0         0         0         0         0         0
         0         0         0         0         0         0         0         0
         0         0         0         0         0         0         0         0
         0         0         0         0         0         0         0         0
         0         0         0         0         0         0         0         0
         0         0         0         0         0         0         0         0
         0         0         0         0         0         0         0         0
         0         0         0         0         0         0         0         0
         0         0         0         0         0         0         0         0
         0         0         0         0         0         0         0         0
         0         0         0         0         0         0         0         0
         0         0         0         0         0         0         0         0
         0         0         0         0         0         0         0         0
         0         0         0         0         0         0         0         0
         0         0         0         0         0         0         0         0
         0         0         0         0         0         0         0         0
         0         0         0         0         0         0         0         0
         0         0         0         0         0         0         0         0
         0         0         0         0         0         0         0         0
         0         0         0         0         0         0         0         0
         0         0         0         0         0         0         0         0
         0         0         0         0         0         0         0         0
         0         0         0         0         0         0         0         0
         0         0         0         0         0         0         0         0
         0         0         0         0         0         0         0         0
         0         0         0         0         0         0         0         0
         0         0         0         0         0         0         0         0
         0         0         0         0         0         0         0         0
         0         0         0         0         0         0         0         0
         0         0         0         0         0         0         0         0
         0         0         0         0         0         0         0         0
         0         0         0         0         0         0         0         0
         0         0         0         0         0         0         0         0
         0         0         0         0         0         0         0         0
         0         0         0         0         0         0         0         0
         0         0         0         0         0         0         0         0
         0         0         0         0         0         0         0         0
         0         0         0         0         0         0         0         0
         0         0         0         0         0         0         0         0
         0         0         0         0         0         0         0         0
         0         0         0         0         0         0         0         0
         0         0         0         0         0         0         0         0
         0         0         0         0         0         0         0         0
         0         0         0         0         0         0         0         0
         0         0         0         0         0         0         0         0
         0         0         0         0         0         0         0         0
         0         0         0         0         0         0         0         0
         0         0         0         0         0         0         0         0
         0         0         0         0         0         0         0         0
         0         0         0         0         0         0         0         0
         0         0         0         0         0         0         0         0
         0         0         0         0         0         0         0         0
         0         0         0         0         0         0         0         0
         0         0         0         0         0         0         0         0
         0         0         0         0         0         0         0         0
         0         0         0         0         0         0         0         0
         0         0         0         0         0         0         0         0
         0         0         0         0         0         0         0         0
         0         0         0         0         0         0         0         0
         0         0         0         0         0         0         0         0
         0         0         0         0         0         0         0         0
         0         0         0         0         0         0         0         0
         0         0         0         0         0         0         0         0
         0         0         0         0         0         0         0         0
         0         0         0         0         0         0         0         0
         0         0         0         0         0         0         0         0
         0         0         0         0         0         0         0         0
         0         0         0         0         0         0         0         0
         0         0         0         0         0         0         0         0
         0         0         0         0         0         0         0         0
         0         0         0         0         0         0         0         0
         0         0         0         0         0         0         0         0
         0         0         0         0         0         0         0         0
         0         0         0         0         0         0         0         0
         0         0         0         0         0         0         0         0
         0         0         0         0         0         0         0         0
         0         0         0         0         0         0         0         0
         0         0         0         0         0         0         0         0
         0         0         0         0         0         0         0         0
         0         0         0         0         0         0         0         0
         0         0         0         0         0         0         0         0
         0         0         0         0         0         0         0         0
         0         0         0         0         0         0         0         0
         0         0         0         0         0         0         0         0
         0         0         0         0         0         0         0         0
         0         0         0         0         0         0         0         0
         0         0         0         0         0         0         0         0
         0         0         0         0         0         0         0         0
         0         0         0         0         0         0         0         0
         0         0         0         0         0         0         0         0
         0         0         0         0         0         0         0         0
         0         0         0         0         0         0         0         0
         0         0         0         0         0         0         0         0
         0         0         0         0         0         0         0         0
         0         0         0         0         0         0         0         0
         0         0         0         0         0         0         0         0
         0         0         0         0         0         0         0         0
         0         0         0         0         0         0         0         0
         0         0         0         0         0         0         0         0
         0         0         0         0         0         0         0         0
         0         0         0         0         0         0         0         0
         0         0         0         0         0         0         0         0
         0         0         0         0         0         0         0         0
         0         0         0         0         0         0         0         0
         0         0         0         0         0         0         0         0
         0         0         0         0         0         0         0         0
         0         0         0         0         0         0         0         0
         0         0         0         0         0         0         0         0
         0         0         0         0         0         0         0         0
         0         0         0         0         0         0         0         0
         0         0         0         0         0         0         0         0
         0         0         0         0         0         0         0         0
         0         0         0         0         0         0         0         0
         0         0         0         0         0         0         0         0
         0         0         0         0         0         0         0         0
         0         0         0         0         0         0         0         0
         0         0         0         0         0         0         0         0
         0         0         0         0         0         0         0         0
         0         0         0         0         0         0         0         0
         0         0         0         0         0         0         0         0
         0         0         0         0         0         0         0         0
         0         0         0         0         0         0         0         0
         0         0         0         0         0         0         0         0
         0         0         0         0         0         0         0         0
         0         0         0         0         0         0         0         0
         0         0         0         0         0         0         0         0
         0         0         0         0         0         0         0         0
         0         0         0         0         0         0         0         0
         0         0         0         0         0         0         0         0
         0         0         0         0         0         0         0         0
         0         0         0         0         0         0         0         0
         0         0         0         0         0         0         0         0
         0         0         0         0         0         0         0         0
         0         0         0         0         0         0         0         0
         0         0         0         0         0         0         0         0
         0         0         0         0         0         0         0         0
         0         0         0         0         0         0         0         0
         0         0         0         0         0         0         0         0
         0         0         0         0         0         0         0         0
         0         0         0         0         0         0         0         0
         0         0         0         0         0         0         0         0
         0         0         0         0         0         0         0         0
         0         0         0         0         0         0         0         0
         0         0         0         0         0         0         0         0
         0         0         0         0         0         0         0         0
         0         0         0         0         0         0         0         0
         0         0         0         0         0         0         0         0
         0         0         0         0         0         0         0         0
         0         0         0         0         0         0         0         0
         0         0         0         0         0         0         0         0
         0         0         0         0         0         0         0         0
         0         0         0         0         0         0         0         0
         0         0         0         0         0         0         0         0
         0         0         0         0         0         0         0         0
         0         0         0         0         0         0         0         0
         0         0         0         0         0         0         0         0
         0         0         0         0         0         0         0         0
         0         0         0         0         0         0         0         0
         0         0         0         0         0         0         0         0
         0         0         0         0         0         0         0         0
         0         0         0         0         0         0         0         0
         0         0         0         0         0         0         0         0
         0         0         0         0         0         0         0         0
         0         0         0         0         0         0         0         0
         0         0         0         0         0         0         0         0
         0         0         0         0         0         0         0         0
         0         0         0         0         0         0         0         0
         0         0         0         0         0         0         0         0
         0         0         0         0         0         0         0         0
         0         0         0         0         0         0         0         0
         0         0         0         0         0         0         0         0
         0         0         0         0         0         0         0         0
         0         0         0         0         0         0         0         0
         0         0         0         0         0         0         0         0
         0         0         0         0         0         0         0         0
         0         0         0         0         0         0         0         0
         0         0         0         0         0         0         0         0
         0         0         0         0         0         0         0         0
         0         0         0         0         0         0         0         0
         0         0         0         0         0         0         0         0
         0         0         0         0         0         0         0         0
         0         0         0         0         0         0         0         0
         0         0         0         0         0         0         0         0
         0         0         0         0         0         0         0         0
         0         0         0         0         0         0         0         0
         0         0         0         0         0         0         0         0
         0         0         0         0         0         0         0         0
         0         0         0         0         0         0         0         0
         0         0         0         0         0         0         0         0
         0         0         0         0         0         0         0         0
         0         0         0         0         0         0         0         0
         0         0         0         0         0         0         0         0
         0         0         0         0         0         0         0         0
         0         0         0         0         0         0         0         0
         0         0         0         0         0         0         0         0
         0         0         0         0         0         0         0         0
         0         0         0         0         0         0         0         0
         0         0         0         0         0         0         0         0
         0         0         0         0         0         0         0         0
         0         0         0         0         0         0         0         0
         0         0         0         0         0         0         0         0
         0         0         0         0         0         0         0         0
         0         0         0         0         0         0         0         0
         0         0         0         0         0         0         0         0
         0         0         0         0         0         0         0         0
         0         0         0         0         0         0         0         0
         0         0         0         0         0         0         0         0
         0         0         0         0         0         0         0         0
         0         0         0         0         0         0         0         0
         0         0         0         0         0         0         0         0
         0         0         0         0         0         0         0         0
         0         0         0         0         0         0         0         0
         0         0         0         0         0         0         0         0
         0         0         0         0         0         0         0         0
         0         0         0         0         0         0         0         0
         0         0         0         0         0         0         0         0
         0         0         0         0         0         0         0         0
         0         0         0         0         0         0         0         0
         0         0         0         0         0         0         0         0
         0         0         0         0         0         0         0         0
         0         0         0         0         0         0         0         0
         0         0         0         0         0         0         0         0
         0         0         0         0         0         0         0         0
         0         0         0         0         0         0         0         0
         0         0         0         0         0         0         0         0
         0         0         0         0         0         0         0         0
         0         0         0         0         0         0         0         0
         0         0         0         0         0         0         0         0
         0         0         0         0         0         0         0         0
         0         0         0         0         0         0         0         0
         0         0         0         0         0         0         0         0
         0         0         0         0         0         0         0         0
         0         0         0         0         0         0         0         0
         0         0         0         0         0         0         0         0
         0         0         0         0         0         0         0         0
         0         0         0         0         0         0         0         0
         0         0         0         0         0         0         0         0
         0         0         0         0         0         0         0         0
         0         0         0         0         0         0         0         0
         0         0         0         0         0         0         0         0
         0         0         0         0         0         0         0         0
         0         0         0         0         0         0         0         0
         0         0         0         0         0         0         0         0
         0         0         0         0         0         0         0         0
         0         0         0         0         0         0         0         0
         0         0         0         0         0         0         0         0
         0         0         0         0         0         0         0         0
         0         0         0         0         0         0         0         0
         0         0         0         0         0         0         0         0
         0         0         0         0         0         0         0         0
         0         0         0         0         0         0         0         0
         0         0         0         0         0         0         0         0
         0         0         0         0         0         0         0         0
         0         0         0         0         0         0         0         0
         0         0         0         0         0         0         0         0
         0         0         0         0         0         0         0         0
         0         0         0         0         0         0         0         0
         0         0         0         0         0         0         0         0
         0         0         0         0         0         0         0         0
         0         0         0         0         0         0         0         0
         0         0         0         0         0         0         0         0
         0         0         0         0         0         0         0         0
         0         0         0         0         0         0         0         0
         0         0         0         0         0         0         0         0
         0         0         0         0         0         0         0         0
         0         0         0         0         0         0         0         0
         0         0         0         0         0         0         0         0
         0         0         0         0         0         0         0         0
         0         0         0         0         0         0         0         0
         0         0         0         0         0         0         0         0
         0         0         0         0         0         0         0         0
         0         0         0         0         0         0         0         0
         0         0         0         0         0         0         0         0
         0         0         0         0         0         0         0         0
         0         0         0         0         0         0         0         0
         0         0         0         0         0         0         0         0
         0         0         0         0         0         0         0         0
         0         0         0         0         0         0         0         0
         0         0         0         0         0         0         0         0
         0         0         0         0         0         0         0         0
         0         0         0         0         0         0         0         0
         0         0         0         0         0         0         0         0
         0         0         0         0         0         0         0         0
         0         0         0         0         0         0         0         0
         0         0         0         0         0         0         0         0
         0         0         0         0         0         0         0         0
         0         0         0         0         0         0         0         0
         0         0         0         0         0         0         0         0
         0         0         0         0         0         0         0         0
         0         0         0         0         0         0         0         0
         0         0         0         0         0         0         0         0
         0         0         0         0         0         0         0         0
         0         0         0         0         0         0         0         0
         0         0         0         0         0         0         0         0
         0         0         0         0         0         0         0         0
         0         0         0         0         0         0         0         0
         0         0         0         0         0         0         0         0
         0         0         0         0         0         0         0         0
         0         0         0         0         0         0         0         0
         0         0         0         0         0         0         0         0
         0         0         0         0         0         0         0         0
         0         0         0         0         0         0         0         0
         0         0         0         0         0         0         0         0
         0         0         0         0         0         0         0         0
         0         0         0         0         0         0         0         0
         0         0         0         0         0         0         0         0
         0         0         0         0         0         0         0         0
         0         0         0         0         0         0         0         0
         0         0         0         0         0         0         0         0
         0         0         0         0         0         0         0         0
         0         0         0         0         0         0         0         0
         0         0         0         0         0         0         0         0
         0         0         0         0         0         0         0         0
         0         0         0         0         0         0         0         0
         0         0         0         0         0         0         0         0
         0         0         0         0         0         0         0         0
         0         0         0         0         0         0         0         0
         0         0         0         0         0         0         0         0
         0         0         0         0         0         0         0         0
         0         0         0         0         0         0         0         0
         0         0         0         0         0         0         0         0
         0         0         0         0         0         0         0         0
         0         0         0         0         0         0         0         0
         0         0         0         0         0         0         0         0
         0         0         0         0         0         0         0         0
         0         0         0         0         0         0         0         0
         0         0         0         0         0         0         0         0
         0         0         0         0         0         0         0         0
         0         0         0         0         0         0         0         0
         0         0         0         0         0         0         0         0
         0         0         0         0         0         0         0         0
         0         0         0         0         0         0         0         0
         0         0         0         0         0         0         0         0
         0         0         0         0         0         0         0         0
         0         0         0         0         0         0         0         0
         0         0         0         0         0         0         0         0
         0         0         0         0         0         0         0         0
         0         0         0         0         0         0         0         0
         0         0         0         0         0         0         0         0
         0         0         0         0         0         0         0         0
         0         0         0         0         0         0         0         0
         0         0         0         0         0         0         0         0
         0         0         0         0         0         0         0         0
         0         0         0         0         0         0         0         0
         0         0         0         0         0         0         0         0
         0         0         0         0         0         0         0         0
         0         0         0         0         0         0         0         0
         0         0         0         0         0         0         0         0
         0         0         0         0         0         0         0         0
         0         0         0         0         0         0         0         0
         0         0         0         0         0         0         0         0
         0         0         0         0         0         0         0         0
         0         0         0         0         0         0         0         0
         0         0         0         0         0         0         0         0
         0         0         0         0         0         0         0         0
         0         0         0         0         0         0         0         0
         0         0         0         0         0         0         0         0
         0         0         0         0         0         0         0         0
         0         0         0         0         0         0         0         0
         0         0         0         0         0         0         0         0
         0         0         0         0         0         0         0         0
         0         0         0         0         0         0         0         0
         0         0         0         0         0         0         0         0
         0         0         0         0         0         0         0         0
         0         0         0         0         0         0         0         0
         0         0         0         0         0         0         0         0
         0         0         0         0         0         0         0         0
         0         0         0         0         0         0         0         0
         0         0         0         0         0         0         0         0
         0         0         0         0         0         0         0         0
         0         0         0         0         0         0         0         0
         0         0         0         0         0         0         0         0
         0         0         0         0         0         0         0         0
         0         0         0         0         0         0         0         0
         0         0         0         0         0         0         0         0
         0         0         0         0         0         0         0         0
         0         0         0         0         0         0         0         0
         0         0         0         0         0         0         0         0
         0         0         0         0         0         0         0         0
         0         0         0         0         0         0         0         0
         0         0         0         0         0         0         0         0
         0         0         0         0         0         0         0         0
         0         0         0         0         0         0         0         0
         0         0         0         0         0         0         0         0
         0         0         0         0         0         0         0         0
         0         0         0         0         0         0         0         0
         0         0         0         0         0         0         0         0
         0         0         0         0         0         0         0         0
         0         0         0         0         0         0         0         0
         0         0         0         0         0         0         0         0
         0         0         0         0         0         0         0         0
         0         0         0         0         0         0         0         0
         0         0         0         0         0         0         0         0
         0         0         0         0         0         0         0         0
         0         0         0         0         0         0         0         0
         0         0         0         0         0         0         0         0
         0         0         0         0         0         0         0         0
         0         0         0         0         0         0         0         0
         0         0         0         0         0         0         0         0
         0         0         0         0         0         0         0         0
         0         0         0         0         0         0         0         0
         0         0         0         0         0         0         0         0
         0         0         0         0         0         0         0         0
         0         0         0         0         0         0         0         0
         0         0         0         0         0         0         0         0
         0         0         0         0         0         0         0         0
         0         0         0         0         0         0         0         0
         0         0         0         0         0         0         0         0
         0         0         0         0         0         0         0         0
         0         0         0         0         0         0         0         0
         0         0         0         0         0         0         0         0
         0         0         0         0         0         0         0         0
         0         0         0         0         0         0         0         0
         0         0         0         0         0         0         0         0
         0         0         0         0         0         0         0         0
         0         0         0         0         0         0         0         0
         0         0         0         0         0         0         0         0
         0         0         0         0         0         0         0         0
         0         0         0         0         0         0         0         0
         0         0         0         0         0         0         0         0
         0         0         0         0         0         0         0         0
         0         0         0         0         0         0         0         0
         0         0         0         0         0         0         0         0
         0         0         0         0         0         0         0         0
         0         0         0         0         0         0         0         0
         0         0         0         0         0         0         0         0
         0         0         0         0         0         0         0         0
         0         0         0         0         0         0         0         0
         0         0         0         0         0         0         0         0
         0         0         0         0         0         0         0         0
         0         0         0         0         0         0         0         0
         0         0         0         0         0         0         0         0
         0         0         0         0         0         0         0         0
         0         0         0         0         0         0         0         0
         0         0         0         0         0         0         0         0
         0         0         0         0         0         0         0         0
         0         0         0         0         0         0         0         0
         0         0         0         0         0         0         0         0
         0         0         0         0         0         0         0         0
         0         0         0         0         0         0         0         0
         0         0         0         0         0         0         0         0
         0         0         0         0         0         0         0         0
         0         0         0         0         0         0         0         0
         0         0         0         0         0         0         0         0
         0         0         0         0         0         0         0         0
         0         0         0         0         0         0         0         0
         0         0         0         0         0         0         0         0
         0         0         0         0         0         0         0         0
         0         0         0         0         0         0         0         0
         0         0         0         0         0         0         0         0
         0         0         0         0         0         0         0         0
         0         0         0         0         0         0         0         0
         0         0         0         0         0         0         0         0
         0         0         0         0         0         0         0         0
         0         0         0         0         0         0         0         0
         0         0         0         0         0         0         0         0
         0         0         0         0         0         0         0         0
         0         0         0         0         0         0         0         0
         0         0         0         0         0         0         0         0
         0         0         0         0         0         0         0         0
         0         0         0         0         0         0         0         0
         0         0         0         0         0         0         0         0
         0         0         0         0         0         0         0         0
         0         0         0         0         0         0         0         0
         0         0         0         0         0         0         0         0
         0         0         0         0         0         0         0         0
         0         0         0         0         0         0         0         0
         0         0         0         0         0         0         0         0
         0         0         0         0         0         0         0         0
         0         0         0         0         0         0         0         0
         0         0         0         0         0         0         0         0
         0         0         0         0         0         0         0         0
         0         0         0         0         0         0         0         0
         0         0         0         0         0         0         0         0
         0         0         0         0         0         0         0         0
         0         0         0         0         0         0         0         0
         0         0         0         0         0         0         0         0
         0         0         0         0         0         0         0         0
         0         0         0         0         0         0         0         0
         0         0         0         0         0         0         0         0
         0         0         0         0         0         0         0         0
         0         0         0         0         0         0         0         0
         0         0         0         0         0         0         0         0
         0         0         0         0         0         0         0         0
         0         0         0         0         0         0         0         0
         0         0         0         0         0         0         0         0
         0         0         0         0         0         0         0         0
         0         0         0         0         0         0         0         0
         0         0         0         0         0         0         0         0
         0         0         0         0         0         0         0         0
         0         0         0         0         0         0         0         0
         0         0         0         0         0         0         0         0
         0         0         0         0         0         0         0         0
         0         0         0         0         0         0         0         0
         0         0         0         0         0         0         0         0
         0         0         0         0         0         0         0         0
         0         0         0         0         0         0         0         0
         0         0         0         0         0         0         0         0
         0         0         0         0         0         0         0         0
         0         0         0         0         0         0         0         0
         0         0         0         0         0         0         0         0
         0         0         0         0         0         0         0         0
         0         0         0         0         0         0         0         0
         0         0         0         0         0         0         0         0
         0         0         0         0         0         0         0         0
         0         0         0         0         0         0         0         0
         0         0         0         0         0         0         0         0
         0         0         0         0         0         0         0         0
         0         0         0         0         0         0         0         0
         0         0         0         0         0         0         0         0
         0         0         0         0         0         0         0         0
         0         0         0         0         0         0         0         0
         0         0         0         0         0         0         0         0
         0         0         0         0         0         0         0         0
         0         0         0         0         0         0         0         0
         0         0         0         0         0         0         0         0
         0         0         0         0         0         0         0         0
         0         0         0         0         0         0         0         0
         0         0         0         0         0         0         0         0
         0         0         0         0         0         0         0         0
         0         0         0         0         0         0         0         0
         0         0         0         0         0         0         0         0
         0         0         0         0         0         0         0         0
         0         0         0         0         0         0         0         0
         0         0         0         0         0         0         0         0
         0         0         0         0         0         0         0         0
         0         0         0         0         0         0         0         0
         0         0         0         0         0         0         0         0
         0         0         0         0         0         0         0         0
         0         0         0         0         0         0         0         0
         0         0         0         0         0         0         0         0
         0         0         0         0         0         0         0         0
         0         0         0         0         0         0         0         0
         0         0         0         0         0         0         0         0
         0         0         0         0         0         0         0         0
         0         0         0         0         0         0         0         0
         0         0         0         0         0         0         0         0
         0         0         0         0         0         0         0         0
         0         0         0         0         0         0         0         0
         0         0         0         0         0         0         0         0
         0         0         0         0         0         0         0         0
         0         0         0         0         0         0         0         0
         0         0         0         0         0         0         0         0
         0         0         0         0         0         0         0         0
         0         0         0         0         0         0         0         0
         0         0         0         0         0         0         0         0
         0         0         0         0         0         0         0         0
         0         0         0         0         0         0         0         0
         0         0         0         0         0         0         0         0
         0         0         0         0         0         0         0         0
         0         0         0         0         0         0         0         0
         0         0         0         0         0         0         0         0
         0         0         0         0         0         0         0         0
         0         0         0         0         0         0         0         0
         0         0         0         0         0         0         0         0
         0         0         0         0         0         0         0         0
         0         0         0         0         0         0         0         0
         0         0         0         0         0         0         0         0
         0         0         0         0         0         0         0         0
         0         0         0         0         0         0         0         0
         0         0         0         0         0         0         0         0
         0         0         0         0         0         0         0         0
         0         0         0         0         0         0         0         0
         0         0         0         0         0         0         0         0
         0         0         0         0         0         0         0         0
         0         0         0         0         0         0         0         0
         0         0         0         0         0         0         0         0
         0         0         0         0         0         0         0         0
         0         0         0         0         0         0         0         0
         0         0         0         0         0         0         0         0
         0         0         0         0         0         0         0         0
         0         0         0         0         0         0         0         0
         0         0         0         0         0         0         0         0
         0         0         0         0         0         0         0         0
         0         0         0         0         0         0         0         0
         0         0         0         0         0         0         0         0
         0         0         0         0         0         0         0         0
         0         0         0         0         0         0         0         0
         0         0         0         0         0         0         0         0
         0         0         0         0         0         0         0         0
         0         0         0         0         0         0         0         0
         0         0         0         0         0         0         0         0
         0         0         0         0         0         0         0         0
         0         0         0         0         0         0         0         0
         0         0         0         0         0         0         0         0
         0         0         0         0         0         0         0         0
         0         0         0         0         0         0         0         0
         0         0         0         0         0         0         0         0
         0         0         0         0         0         0         0         0
         0         0         0         0         0         0         0         0
         0         0         0         0         0         0         0         0
         0         0         0         0         0         0         0         0
         0         0         0         0         0         0         0         0
         0         0         0         0         0         0         0         0
         0         0         0         0         0         0         0         0
         0         0         0         0         0         0         0         0
         0         0         0         0         0         0         0         0
         0         0         0         0         0         0         0         0
         0         0         0         0         0         0         0         0
         0         0         0         0         0         0         0         0
         0         0         0         0         0         0         0         0
         0         0         0         0         0         0         0         0
         0         0         0         0         0         0         0         0
         0         0         0         0         0         0         0         0
         0         0         0         0         0         0         0         0
         0         0         0         0         0         0         0         0
         0         0         0         0         0         0         0         0
         0         0         0         0         0         0         0         0
         0         0         0         0         0         0         0         0
         0         0         0         0         0         0         0         0
         0         0         0         0         0         0         0         0
         0         0         0         0         0         0         0         0
         0         0         0         0         0         0         0         0
         0         0         0         0         0         0         0         0
         0         0         0         0         0         0         0         0
         0         0         0         0         0         0         0         0
         0         0         0         0         0         0         0         0
         0         0         0         0         0         0         0         0
         0         0         0         0         0         0         0         0
         0         0         0         0         0         0         0         0
         0         0         0         0         0         0         0         0
         0         0         0         0         0         0         0         0
         0         0         0         0         0         0         0         0
         0         0         0         0         0         0         0         0
         0         0         0         0         0         0         0         0
         0         0         0         0         0         0         0         0
         0         0         0         0         0         0         0         0
         0         0         0         0         0         0         0         0
         0         0         0         0         0         0         0         0
         0         0         0         0         0         0         0         0
         0         0         0         0         0         0         0         0
         0         0         0         0         0         0         0         0
         0         0         0         0         0         0         0         0
         0         0         0         0         0         0         0         0
         0         0         0         0         0         0         0         0
         0         0         0         0         0         0         0         0
         0         0         0         0         0         0         0         0
         0         0         0         0         0         0         0         0
         0         0         0         0         0         0         0         0
         0         0         0         0         0         0         0         0
         0         0         0         0         0         0         0         0
         0         0         0         0         0         0         0         0
         0         0         0         0         0         0         0         0
         0         0         0         0         0         0         0         0
         0         0         0         0         0         0         0         0
         0         0         0         0         0         0         0         0
         0         0         0         0         0         0         0         0
         0         0         0         0         0         0         0         0
         0         0         0         0         0         0         0         0
         0         0         0         0         0         0         0         0
         0         0         0         0         0         0         0         0
         0         0         0         0         0         0         0         0
         0         0         0         0         0         0         0         0
         0         0         0         0         0         0         0         0
         0         0         0         0         0         0         0         0
         0         0         0         0         0         0         0         0
         0         0         0         0         0         0         0         0
         0         0         0         0         0         0         0         0
         0         0         0         0         0         0         0         0
         0         0         0         0         0         0         0         0
         0         0         0         0         0         0         0         0
         0         0         0         0         0         0         0         0
         0         0         0         0         0         0         0         0
         0         0         0         0         0         0         0         0
         0         0         0         0         0         0         0         0
         0         0         0         0         0         0         0         0
         0         0         0         0         0         0         0         0
         0         0         0         0         0         0         0         0
         0         0         0         0         0         0         0         0
         0         0         0         0         0         0         0         0
         0         0         0         0         0         0         0         0
         0         0         0         0         0         0         0         0
         0         0         0         0         0         0         0         0
         0         0         0         0         0         0         0         0
         0         0         0         0         0         0         0         0
         0         0         0         0         0         0         0         0
         0         0         0         0         0         0         0         0
         0         0         0         0         0         0         0         0
         0         0         0         0         0         0         0         0
         0         0         0         0         0         0         0         0
         0         0         0         0         0         0         0         0
         0         0         0         0         0         0         0         0
         0         0         0         0         0         0         0         0
         0         0         0         0         0         0         0         0
         0         0         0         0         0         0         0         0
         0         0         0         0         0         0         0         0
         0         0         0         0         0         0         0         0
         0         0         0         0         0         0         0         0
         0         0         0         0         0         0         0         0
         0         0         0         0         0         0         0         0
         0         0         0         0         0         0         0         0
         0         0         0         0         0         0         0         0
         0         0         0         0         0         0         0         0
         0         0         0         0         0         0         0         0
         0         0         0         0         0         0         0         0
         0         0         0         0         0         0         0         0
         0         0         0         0         0         0         0         0
         0         0         0         0         0         0         0         0
         0         0         0         0         0         0         0         0
         0         0         0         0         0         0         0         0
         0         0         0         0         0         0         0         0
         0         0         0         0         0         0         0         0
         0         0         0         0         0         0         0         0
         0         0         0         0         0         0         0         0
         0         0         0         0         0         0         0         0
         0         0         0         0         0         0         0         0
         0         0         0         0         0         0         0         0
         0         0         0         0         0         0         0         0
         0         0         0         0         0         0         0         0
         0         0         0         0         0         0         0         0
         0         0         0         0         0         0         0         0
         0         0         0         0         0         0         0         0
         0         0         0         0         0         0         0         0
         0         0         0         0         0         0         0         0
         0         0         0         0         0         0         0         0
         0         0         0         0         0         0         0         0
         0         0         0         0         0         0         0         0
         0         0         0         0         0         0         0         0
         0         0         0         0         0         0         0         0
         0         0         0         0         0         0         0         0
         0         0         0         0         0         0         0         0
         0         0         0         0         0         0         0         0
         0         0         0         0         0         0         0         0
         0         0         0         0         0         0         0         0
         0         0         0         0         0         0         0         0
         0         0         0         0         0         0         0         0
         0         0         0         0         0         0         0         0
         0         0         0         0         0         0         0         0
         0         0         0         0         0         0         0         0
         0         0         0         0         0         0         0         0
         0         0         0         0         0         0         0         0
         0         0         0         0         0         0         0         0
         0         0         0         0         0         0         0         0
         0         0         0         0         0         0         0         0
         0         0         0         0         0         0         0         0
         0         0         0         0         0         0         0         0
         0         0         0         0         0         0         0         0
         0         0         0         0         0         0         0         0
         0         0         0         0         0         0         0         0
         0         0         0         0         0         0         0         0
         0         0         0         0         0         0         0         0
         0         0         0         0         0         0         0         0
         0         0         0         0         0         0         0         0
         0         0         0         0         0         0         0         0
         0         0         0         0         0         0         0         0
         0         0         0         0         0         0         0         0
         0         0         0         0         0         0         0         0
         0         0         0         0         0         0         0         0
         0         0         0         0         0         0         0         0
         0         0         0         0         0         0         0         0
         0         0         0         0         0         0         0         0
         0         0         0         0         0         0         0         0
         0         0         0         0         0         0         0         0
         0         0         0         0         0         0         0         0
         0         0         0         0         0         0         0         0
         0         0         0         0         0         0         0         0
         0         0         0         0         0         0         0         0
         0         0         0         0         0         0         0         0
         0         0         0         0         0         0         0         0
         0         0         0         0         0         0         0         0
         0         0         0         0         0         0         0         0
         0         0         0         0         0         0         0         0
         0         0         0         0         0         0         0         0
         0         0         0         0         0         0         0         0
         0         0         0         0         0         0         0         0
         0         0         0         0         0         0         0         0
         0         0         0         0         0         0         0         0
         0         0         0         0         0         0         0         0
         0         0         0         0         0         0         0         0
         0         0         0         0         0         0         0         0
         0         0         0         0         0         0         0         0
         0         0         0         0         0         0         0         0
         0         0         0         0         0         0         0         0
         0         0         0         0         0         0         0         0
         0         0         0         0         0         0         0         0
         0         0         0         0         0         0         0         0
         0         0         0         0         0         0         0         0
         0         0         0         0         0         0         0         0
         0         0         0         0         0         0         0         0
         0         0         0         0         0         0         0         0
         0         0         0         0         0         0         0         0
         0         0         0         0         0         0         0         0
         0         0         0         0         0         0         0         0
         0         0         0         0         0         0         0         0
         0         0         0         0         0         0         0         0
         0         0         0         0         0         0         0         0
         0         0         0         0         0         0         0         0
         0         0         0         0         0         0         0         0
         0         0         0         0         0         0         0         0
         0         0         0         0         0         0         0         0
         0         0         0         0         0         0         0         0
         0         0         0         0         0         0         0         0
         0         0         0         0         0         0         0         0
         0         0         0         0         0         0         0         0
         0         0         0         0         0         0         0         0
         0         0         0         0         0         0         0         0
         0         0         0         0         0         0         0         0
         0         0         0         0         0         0         0         0
         0         0         0         0         0         0         0         0
         0         0         0         0         0         0         0         0
         0         0         0         0         0         0         0         0
         0         0         0         0         0         0         0         0
         0         0         0         0         0         0         0         0
         0         0         0         0         0         0         0         0
         0         0         0         0         0         0         0         0
         0         0         0         0         0         0         0         0
         0         0         0         0         0         0         0         0
         0         0         0         0         0         0         0         0
         0         0         0         0         0         0         0         0
         0         0         0         0         0         0         0         0
         0         0         0         0         0         0         0         0
         0         0         0         0         0         0         0         0
         0         0         0         0         0         0         0         0
         0         0         0         0         0         0         0         0
         0         0         0         0         0         0         0         0
         0         0         0         0         0         0         0         0
         0         0         0         0         0         0         0         0
         0         0         0         0         0         0         0         0
         0         0         0         0         0         0         0         0
         0         0         0         0         0         0         0         0
         0         0         0         0         0         0         0         0
         0         0         0         0         0         0         0         0
         0         0         0         0         0         0         0         0
         0         0         0         0         0         0         0         0
         0         0         0         0         0         0         0         0
         0         0         0         0         0         0         0         0
         0         0         0         0         0         0         0         0
         0         0         0         0         0         0         0         0
         0         0         0         0         0         0         0         0
         0         0         0         0         0         0         0         0
         0         0         0         0         0         0         0         0
         0         0         0         0         0         0         0         0
         0         0         0         0         0         0         0         0
         0         0         0         0         0         0         0         0
         0         0         0         0         0         0         0         0
         0         0         0         0         0         0         0         0
         0         0         0         0         0         0         0         0
         0         0         0         0         0         0         0         0
         0         0         0         0         0         0         0         0
         0         0         0         0         0         0         0         0
         0         0         0         0         0         0         0         0
         0         0         0         0         0         0         0         0
         0         0         0         0         0         0         0         0
         0         0         0         0         0         0         0         0
         0         0         0         0         0         0         0         0
         0         0         0         0         0         0         0         0
         0         0         0         0         0         0         0         0
         0         0         0         0         0         0         0         0
         0         0         0         0         0         0         0         0
         0         0         0         0         0         0         0         0
         0         0         0         0         0         0         0         0
         0         0         0         0         0         0         0         0
         0         0         0         0         0         0         0         0
         0         0         0         0         0         0         0         0
         0         0         0         0         0         0         0         0
         0         0         0         0         0         0         0         0
         0         0         0         0         0         0         0         0
         0         0         0         0         0         0         0         0
         0         0         0         0         0         0         0         0
         0         0         0         0         0         0         0         0
         0         0         0         0         0         0         0         0
         0         0         0         0         0         0         0         0
         0         0         0         0         0         0         0         0
         0         0         0         0         0         0         0         0
         0         0         0         0         0         0         0         0
         0         0         0         0         0         0         0         0
         0         0         0         0         0         0         0         0
         0         0         0         0         0         0         0         0
         0         0         0         0         0         0         0         0
         0         0         0         0         0         0         0         0
         0         0         0         0         0         0         0         0
         0         0         0         0         0         0         0         0
         0         0         0         0         0         0         0         0
         0         0         0         0         0         0         0         0
         0         0         0         0         0         0         0         0
         0         0         0         0         0         0         0         0
         0         0         0         0         0         0         0         0
         0         0         0         0         0         0         0         0
         0         0         0         0         0         0         0         0
         0         0         0         0         0         0         0         0
         0         0         0         0         0         0         0         0
         0         0         0         0         0         0         0         0
         0         0         0         0         0         0         0         0
         0         0         0         0         0         0         0         0
         0         0         0         0         0         0         0         0
         0         0         0         0         0         0         0         0
         0         0         0         0         0         0         0         0
         0         0         0         0         0         0         0         0
         0         0         0         0         0         0         0         0
         0         0         0         0         0         0         0         0
         0         0         0         0         0         0         0         0
         0         0         0         0         0         0         0         0
         0         0         0         0         0         0         0         0
         0         0         0         0         0         0         0         0
         0         0         0         0         0         0         0         0
         0         0         0         0         0         0         0         0
         0         0         0         0         0         0         0         0
         0         0         0         0         0         0         0         0
         0         0         0         0         0         0         0         0
         0         0         0         0         0         0         0         0
         0         0         0         0         0         0         0         0
         0         0         0         0         0         0         0         0
         0         0         0         0         0         0         0         0
         0         0         0         0         0         0         0         0
         0         0         0         0         0         0         0         0
         0         0         0         0         0         0         0         0
         0         0         0         0         0         0         0         0
         0         0         0         0         0         0         0         0
         0         0         0         0         0         0         0         0
         0         0         0         0         0         0         0         0
         0         0         0         0         0         0         0         0
         0         0         0         0         0         0         0         0
         0         0         0         0         0         0         0         0
         0         0         0         0         0         0         0         0
         0         0         0         0         0         0         0         0
         0         0         0         0         0         0         0         0
         0         0         0         0         0         0         0         0
         0         0         0         0         0         0         0         0
         0         0         0         0         0         0         0         0
         0         0         0         0         0         0         0         0
         0         0         0         0         0         0         0         0
         0         0         0         0         0         0         0         0
         0         0         0         0         0         0         0         0
         0         0         0         0         0         0         0         0
         0         0         0         0         0         0         0         0
         0         0         0         0         0         0         0         0
         0         0         0         0         0         0         0         0
         0         0         0         0         0         0         0         0
         0         0         0         0         0         0         0         0
         0         0         0         0         0         0         0         0
         0         0         0         0         0         0         0         0
         0         0         0         0         0         0         0         0
         0         0         0         0         0         0         0         0
         0         0         0         0         0         0         0         0
         0         0         0         0         0         0         0         0
         0         0         0         0         0         0         0         0
         0         0         0         0         0         0         0         0
         0         0         0         0         0         0         0         0
         0         0         0         0         0         0         0         0
         0         0         0         0         0         0         0         0
         0         0         0         0         0         0         0         0
         0         0         0         0         0         0         0         0
         0         0         0         0         0         0         0         0
         0         0         0         0         0         0         0         0
         0         0         0         0         0         0         0         0
         0         0         0         0         0         0         0         0
         0         0         0         0         0         0         0         0
         0         0         0         0         0         0         0         0
         0         0         0         0         0         0         0         0
         0         0         0         0         0         0         0         0
         0         0         0         0         0         0         0         0
         0         0         0         0         0         0         0         0
         0         0         0         0         0         0         0         0
         0         0         0         0         0         0         0         0
         0         0         0         0         0         0         0         0
         0         0         0         0         0         0         0         0
         0         0         0         0         0         0         0         0
         0         0         0         0         0         0         0         0
         0         0         0         0         0         0         0         0
         0         0         0         0         0         0         0         0
         0         0         0         0         0         0         0         0
         0         0         0         0         0         0         0         0
         0         0         0         0         0         0         0         0
         0         0         0         0         0         0         0         0
         0         0         0         0         0         0         0         0
         0         0         0         0         0         0         0         0
         0         0         0         0         0         0         0         0
         0         0         0         0         0         0         0         0
         0         0         0         0         0         0         0         0
         0         0         0         0         0         0         0         0
         0         0         0         0         0         0         0         0
         0         0         0         0         0         0         0         0
         0         0         0         0         0         0         0         0
         0         0         0         0         0         0         0         0
         0         0         0         0         0         0         0         0
         0         0         0         0         0         0         0         0
         0         0         0         0         0         0         0         0
         0         0         0         0         0         0         0         0
         0         0         0         0         0         0         0         0
         0         0         0         0         0         0         0         0
         0         0         0         0         0         0         0         0
         0         0         0         0         0         0         0         0
         0         0         0         0         0         0         0         0
         0         0         0         0         0         0         0         0
         0         0         0         0         0         0         0         0
         0         0         0         0         0         0         0         0
         0         0         0         0         0         0         0         0
         0         0         0         0         0         0         0         0
         0         0         0         0         0         0         0         0
         0         0         0         0         0         0         0         0
         0         0         0         0         0         0         0         0
         0         0         0         0         0         0         0         0
         0         0         0         0         0         0         0         0
         0         0         0         0         0         0         0         0
         0         0         0         0         0         0         0         0
         0         0         0         0         0         0         0         0
         0         0         0         0         0         0         0         0
         0         0         0         0         0         0         0         0
         0         0         0         0         0         0         0         0
         0         0         0         0         0         0         0         0
         0         0         0         0         0         0         0         0
         0         0         0         0         0         0         0         0
         0         0         0         0         0         0         0         0
         0         0         0         0         0         0         0         0
         0         0         0         0         0         0         0         0
         0         0         0         0         0         0         0         0
         0         0         0         0         0         0         0         0
         0         0         0         0         0         0         0         0
         0         0         0         0         0         0         0         0
         0         0         0         0         0         0         0         0
         0         0         0         0         0         0         0         0
         0         0         0         0         0         0         0         0
         0         0         0         0         0         0         0         0
         0         0         0         0         0         0         0         0
         0         0         0         0         0         0         0         0
         0         0         0         0         0         0         0         0
         0         0         0         0         0         0         0         0
         0         0         0         0         0         0         0         0
         0         0         0         0         0         0         0         0
         0         0         0         0         0         0         0         0
         0         0         0         0         0         0         0         0
         0         0         0         0         0         0         0         0
         0         0         0         0         0         0         0         0
         0         0         0         0         0         0         0         0
         0         0         0         0         0         0         0         0
         0         0         0         0         0         0         0         0
         0         0         0         0         0         0         0         0
         0         0         0         0         0         0         0         0
         0         0         0         0         0         0         0         0
         0         0         0         0         0         0         0         0
         0         0         0         0         0         0         0         0
         0         0         0         0         0         0         0         0
         0         0         0         0         0         0         0         0
         0         0         0         0         0         0         0         0
         0         0         0         0         0         0         0         0
         0         0         0         0         0         0         0         0
         0         0         0         0         0         0         0         0
         0         0         0         0         0         0         0         0
         0         0         0         0         0         0         0         0
         0         0         0         0         0         0         0         0
         0         0         0         0         0         0         0         0
         0         0         0         0         0         0         0         0
         0         0         0         0         0         0         0         0
         0         0         0         0         0         0         0         0
         0         0         0         0         0         0         0         0
         0         0         0         0         0         0         0         0
         0         0         0         0         0         0         0         0
         0         0         0         0         0         0         0         0
         0         0         0         0         0         0         0         0
         0         0         0         0         0         0         0         0
         0         0         0         0         0         0         0         0
         0         0         0         0         0         0         0         0
         0         0         0         0         0         0         0         0
         0         0         0         0         0         0         0         0
         0         0         0         0         0         0         0         0
         0         0         0         0         0         0         0         0
         0         0         0         0         0         0         0         0
         0         0         0         0         0         0         0         0
         0         0         0         0         0         0         0         0
         0         0         0         0         0         0         0         0
         0         0         0         0         0         0         0         0
         0         0         0         0         0         0         0         0
         0         0         0         0         0         0         0         0
         0         0         0         0         0         0         0         0
         0         0         0         0         0         0         0         0
         0         0         0         0         0         0         0         0
         0         0         0         0         0         0         0         0
         0         0         0         0         0         0         0         0
         0         0         0         0         0         0         0         0
         0         0         0         0         0         0         0         0
         0         0         0         0         0         0         0         0
         0         0         0         0         0         0         0         0
         0         0         0         0         0         0         0         0
         0         0         0         0         0         0         0         0
         0         0         0         0         0         0         0         0
         0         0         0         0         0         0         0         0
         0         0         0         0         0         0         0         0
         0         0         0         0         0         0         0         0
         0         0         0         0         0         0         0         0
         0         0         0         0         0         0         0         0
         0         0         0         0         0         0         0         0
         0         0         0         0         0         0         0         0
         0         0         0         0         0         0         0         0
         0         0         0         0         0         0         0         0
         0         0         0         0         0         0         0         0
         0         0         0         0         0         0         0         0
         0         0         0         0         0         0         0         0
         0         0         0         0         0         0         0         0
         0         0         0         0         0         0         0         0
         0         0         0         0         0         0         0         0
         0         0         0         0         0         0         0         0
         0         0         0         0         0         0         0         0
         0         0         0         0         0         0         0         0
         0         0         0         0         0         0         0         0
         0         0         0         0         0         0         0         0
         0         0         0         0         0         0         0         0
         0         0         0         0         0         0         0         0
         0         0         0         0         0         0         0         0
         0         0         0         0         0         0         0         0
         0         0         0         0         0         0         0         0
         0         0         0         0         0         0         0         0
         0         0         0         0         0         0         0         0
         0         0         0         0         0         0         0         0
         0         0         0         0         0         0         0         0
         0         0         0         0         0         0         0         0
         0         0         0         0         0         0         0         0
         0         0         0         0         0         0         0         0
         0         0         0         0         0         0         0         0
         0         0         0         0         0         0         0         0
         0         0         0         0         0         0         0         0
         0         0         0         0         0         0         0         0
         0         0         0         0         0         0         0         0
         0         0         0         0         0         0         0         0
         0         0         0         0         0         0         0         0
         0         0         0         0         0         0         0         0
         0         0         0         0         0         0         0         0
         0         0         0         0         0         0         0         0
         0         0         0         0         0         0         0         0
         0         0         0         0         0         0         0         0
         0         0         0         0         0         0         0         0
         0         0         0         0         0         0         0         0
         0         0         0         0         0         0         0         0
         0         0         0         0         0         0         0         0
         0         0         0         0         0         0         0         0
         0         0         0         0         0         0         0         0
         0         0         0         0         0         0         0         0
         0         0         0         0         0         0         0         0
         0         0         0         0         0         0         0         0
         0         0         0         0         0         0         0         0
         0         0         0         0         0         0         0         0
         0         0         0         0         0         0         0         0
         0         0         0         0         0         0         0         0
         0         0         0         0         0         0         0         0
         0         0         0         0         0         0         0         0
         0         0         0         0         0         0         0         0
         0         0         0         0         0         0         0         0
         0         0         0         0         0         0         0         0
         0         0         0         0         0         0         0         0
         0         0         0         0         0         0         0         0
         0         0         0         0         0         0         0         0
         0         0         0         0         0         0         0         0
         0         0         0         0         0         0         0         0
         0         0         0         0         0         0         0         0
         0         0         0         0         0         0         0         0
         0         0         0         0         0         0         0         0
         0         0         0         0         0         0         0         0
         0         0         0         0         0         0         0         0
         0         0         0         0         0         0         0         0
         0         0         0         0         0         0         0         0
         0         0         0         0         0         0         0         0
         0         0         0         0         0         0         0         0
         0         0         0         0         0         0         0         0
         0         0         0         0         0         0         0         0
         0         0         0         0         0         0         0         0
         0         0         0         0         0         0         0         0
         0         0         0         0         0         0         0         0
         0         0         0         0         0         0         0         0
         0         0         0         0         0         0         0         0
         0         0         0         0         0         0         0         0
         0         0         0         0         0         0         0         0
         0         0         0         0         0         0         0         0
         0         0         0         0         0         0         0         0
         0         0         0         0         0         0         0         0
         0         0         0         0         0         0         0         0
         0         0         0         0         0         0         0         0
         0         0         0         0         0         0         0         0
         0         0         0         0         0         0         0         0
         0         0         0         0         0         0         0         0
         0         0         0         0         0         0         0         0
         0         0         0         0         0         0         0         0
         0         0         0         0         0         0         0         0
         0         0         0         0         0         0         0         0
         0         0         0         0         0         0         0         0
         0         0         0         0         0         0         0         0
         0         0         0         0         0         0         0         0
         0         0         0         0         0         0         0         0
         0         0         0         0         0         0         0         0
         0         0         0         0         0         0         0         0
         0         0         0         0         0         0         0         0
         0         0         0         0         0         0         0         0
         0         0         0         0         0         0         0         0
         0         0         0         0         0         0         0         0
         0         0         0         0         0         0         0         0
         0         0         0         0         0         0         0         0
         0         0         0         0         0         0         0         0
         0         0         0         0         0         0         0         0
         0         0         0         0         0         0         0         0
         0         0         0         0         0         0         0         0
         0         0         0         0         0         0         0         0
         0         0         0         0         0         0         0         0
         0         0         0         0         0         0         0         0
         0         0         0         0         0         0         0         0
         0         0         0         0         0         0         0         0
         0         0         0         0         0         0         0         0
         0         0         0         0         0         0         0         0
         0         0         0         0         0         0         0         0
         0         0         0         0         0         0         0         0
         0         0         0         0         0         0         0         0
         0         0         0         0         0         0         0         0
         0         0         0         0         0         0         0         0
         0         0         0         0         0         0         0         0
         0         0         0         0         0         0         0         0
         0         0         0         0         0         0         0         0
         0         0         0         0         0         0         0         0
         0         0         0         0         0         0         0         0
         0         0         0         0         0         0         0         0
         0         0         0         0         0         0         0         0
         0         0         0         0         0         0         0         0
         0         0         0         0         0         0         0         0
         0         0         0         0         0         0         0         0
         0         0         0         0         0         0         0         0
         0         0         0         0         0         0         0         0
         0         0         0         0         0         0         0         0
         0         0         0         0         0         0         0         0
         0         0         0         0         0         0         0         0
         0         0         0         0         0         0         0         0
         0         0         0         0         0         0         0         0
         0         0         0         0         0         0         0         0
         0         0         0         0         0         0         0         0
         0         0         0         0         0         0         0         0
         0         0         0         0         0         0         0         0
         0         0         0         0         0         0         0         0
         0         0         0         0         0         0         0         0
         0         0         0         0         0         0         0         0
         0         0         0         0         0         0         0         0
         0         0         0         0         0         0         0         0
         0         0         0         0         0         0         0         0
         0         0         0         0         0         0         0         0
         0         0         0         0         0         0         0         0
         0         0         0         0         0         0         0         0
         0         0         0         0         0         0         0         0
         0         0         0         0         0         0         0         0
         0         0         0         0         0         0         0         0
         0         0         0         0         0         0         0         0
         0         0         0         0         0         0         0         0
         0         0         0         0         0         0         0         0
         0         0         0         0         0         0         0         0
         0         0         0         0         0         0         0         0
         0         0         0         0         0         0         0         0
         0         0         0         0         0         0         0         0
         0         0         0         0         0         0         0         0
         0         0         0         0         0         0         0         0
         0         0         0         0         0         0         0         0
         0         0         0         0         0         0         0         0
         0         0         0         0         0         0         0         0
         0         0         0         0         0         0         0         0
         0         0         0         0         0         0         0         0
         0         0         0         0         0         0         0         0
         0         0         0         0         0         0         0         0
         0         0         0         0         0         0         0         0
         0         0         0         0         0         0         0         0
         0         0         0         0         0         0         0         0
         0         0         0         0         0         0         0         0
         0         0         0         0         0         0         0         0
         0         0         0         0         0         0         0         0
         0         0         0         0         0         0         0         0
         0         0         0         0         0         0         0         0
         0         0         0         0         0         0         0         0
         0         0         0         0         0         0         0         0
         0         0         0         0         0         0         0         0
         0         0         0         0         0         0         0         0
         0         0         0         0         0         0         0         0
         0         0         0         0         0         0         0         0
         0         0         0         0         0         0         0         0
         0         0         0         0         0         0         0         0
         0         0         0         0         0         0         0         0
         0         0         0         0         0         0         0         0
         0         0         0         0         0         0         0         0
         0         0         0         0         0         0         0         0
         0         0         0         0         0         0         0         0
         0         0         0         0         0         0         0         0
         0         0         0         0         0         0         0         0
         0         0         0         0         0         0         0         0
         0         0         0         0         0         0         0         0
         0         0         0         0         0         0         0         0
         0         0         0         0         0         0         0         0
         0         0         0         0         0         0         0         0
         0         0         0         0         0         0         0         0
         0         0         0         0         0         0         0         0
         0         0         0         0         0         0         0         0
         0         0         0         0         0         0         0         0
         0         0         0         0         0         0         0         0
         0         0         0         0         0         0         0         0
         0         0         0         0         0         0         0         0
         0         0         0         0         0         0         0         0
         0         0         0         0         0         0         0         0
         0         0         0         0         0         0         0         0
         0         0         0         0         0         0         0         0
         0         0         0         0         0         0         0         0
         0         0         0         0         0         0         0         0
         0         0         0         0         0         0         0         0
         0         0         0         0         0         0         0         0
         0         0         0         0         0         0         0         0
         0         0         0         0         0         0         0         0
         0         0         0         0         0         0         0         0
         0         0         0         0         0         0         0         0
         0         0         0         0         0         0         0         0
         0         0         0         0         0         0         0         0
         0         0         0         0         0         0         0         0
         0         0         0         0         0         0         0         0
         0         0         0         0         0         0         0         0
         0         0         0         0         0         0         0         0
         0         0         0         0         0         0         0         0
         0         0         0         0         0         0         0         0
         0         0         0         0         0         0         0         0
         0         0         0         0         0         0         0         0
         0         0         0         0         0         0         0         0
         0         0         0         0         0         0         0         0
         0         0         0         0         0         0         0         0
         0         0         0         0         0         0         0         0
         0         0         0         0         0         0         0         0
         0         0         0         0         0         0         0         0
         0         0         0         0         0         0         0         0
         0         0         0         0         0         0         0         0
         0         0         0         0         0         0         0         0
         0         0         0         0         0         0         0         0
         0         0         0         0         0         0         0         0
         0         0         0         0         0         0         0         0
         0         0         0         0         0         0         0         0
         0         0         0         0         0         0         0         0
         0         0         0         0         0         0         0         0
         0         0         0         0         0         0         0         0
         0         0         0         0         0         0         0         0
         0         0         0         0         0         0         0         0
         0         0         0         0         0         0         0         0
         0         0         0         0         0         0         0         0
         0         0         0         0         0         0         0         0
         0         0         0         0         0         0         0         0
         0         0         0         0         0         0         0         0
         0         0         0         0         0         0         0         0
         0         0         0         0         0         0         0         0
         0         0         0         0         0         0         0         0
         0         0         0         0         0         0         0         0
         0         0         0         0         0         0         0         0
         0         0         0         0         0         0         0         0
         0         0         0         0         0         0         0         0
         0         0         0         0         0         0         0         0
         0         0         0         0         0         0         0         0
         0         0         0         0         0         0         0         0
         0         0         0         0         0         0         0         0
         0         0         0         0         0         0         0         0
         0         0         0         0         0         0         0         0
         0         0         0         0         0         0         0         0
         0         0         0         0         0         0         0         0
         0         0         0         0         0         0         0         0
         0         0         0         0         0         0         0         0
         0         0         0         0         0         0         0         0
         0         0         0         0         0         0         0         0
         0         0         0         0         0         0         0         0
         0         0         0         0         0         0         0         0
         0         0         0         0         0         0         0         0
         0         0         0         0         0         0         0         0
         0         0         0         0         0         0         0         0
         0         0         0         0         0         0         0         0
         0         0         0         0         0         0         0         0
         0         0         0         0         0         0         0         0
         0         0         0         0         0         0         0         0
         0         0         0         0         0         0         0         0
         0         0         0         0         0         0         0         0
         0         0         0         0         0         0         0         0
         0         0         0         0         0         0         0         0
         0         0         0         0         0         0         0         0
         0         0         0         0         0         0         0         0
         0         0         0         0         0         0         0         0
         0         0         0         0         0         0         0         0
         0         0         0         0         0         0         0         0
         0         0         0         0         0         0         0         0
         0         0         0         0         0         0         0         0
         0         0         0         0         0         0         0         0
         0         0         0         0         0         0         0         0
         0         0         0         0         0         0         0         0
         0         0         0         0         0         0         0         0
         0         0         0         0         0         0         0         0
         0         0         0         0         0         0         0         0
         0         0         0         0         0         0         0         0
         0         0         0         0         0         0         0         0
         0         0         0         0         0         0         0         0
         0         0         0         0         0         0         0         0
         0         0         0         0         0         0         0         0
         0         0         0         0         0         0         0         0
         0         0         0         0         0         0         0         0
         0         0         0         0         0         0         0         0
         0         0         0         0         0         0         0         0
         0         0         0         0         0         0         0         0
         0         0         0         0         0         0         0         0
         0         0         0         0         0         0         0         0
         0         0         0         0         0         0         0         0
         0         0         0         0         0         0         0         0
         0         0         0         0         0         0         0         0
         0         0         0         0         0         0         0         0
         0         0         0         0         0         0         0         0
         0         0         0         0         0         0         0         0
         0         0         0         0         0         0         0         0
         0         0         0         0         0         0         0         0
         0         0         0         0         0         0         0         0
         0         0         0         0         0         0         0         0
         0         0         0         0         0         0         0         0
         0         0         0         0         0         0         0         0
         0         0         0         0         0         0         0         0
         0         0         0         0         0         0         0         0
         0         0         0         0         0         0         0         0
         0         0         0         0         0         0         0         0
         0         0         0         0         0         0         0         0
         0         0         0         0         0         0         0         0
         0         0         0         0         0         0         0         0
         0         0         0         0         0         0         0         0
         0         0         0         0         0         0         0         0
         0         0         0         0         0         0         0         0
         0         0         0         0         0         0         0         0
         0         0         0         0         0         0         0         0
         0         0         0         0         0         0         0         0
         0         0         0         0         0         0         0         0
         0         0         0         0         0         0         0         0
         0         0         0         0         0         0         0         0
         0         0         0         0         0         0         0         0
         0         0         0         0         0         0         0         0
         0         0         0         0         0         0         0         0
         0         0         0         0         0         0         0         0
         0         0         0         0         0         0         0         0
         0         0         0         0         0         0         0         0
         0         0         0         0         0         0         0         0
         0         0         0         0         0         0         0         0
         0         0         0         0         0         0         0         0
         0         0         0         0         0         0         0         0
         0         0         0         0         0         0         0         0
         0         0         0         0         0         0         0         0
         0         0         0         0         0         0         0         0
         0         0         0         0         0         0         0         0
         0         0         0         0         0         0         0         0
         0         0         0         0         0         0         0         0
         0         0         0         0         0         0         0         0
         0         0         0         0         0         0         0         0
         0         0         0         0         0         0         0         0
         0         0         0         0         0         0         0         0
         0         0         0         0         0         0         0         0
         0         0         0         0         0         0         0         0
         0         0         0         0         0         0         0         0
         0         0         0         0         0         0         0         0
         0         0         0         0         0         0         0         0
         0         0         0         0         0         0         0         0
         0         0         0         0         0         0         0         0
         0         0         0         0         0         0         0         0
         0         0         0         0         0         0         0         0
         0         0         0         0         0         0         0         0
         0         0         0         0         0         0         0         0
         0         0         0         0         0         0         0         0
         0         0         0         0         0         0         0         0
         0         0         0         0         0         0         0         0
         0         0         0         0         0         0         0         0
         0         0         0         0         0         0         0         0
         0         0         0         0         0         0         0         0
         0         0         0         0         0         0         0         0
         0         0         0         0         0         0         0         0
         0         0         0         0         0         0         0         0
         0         0         0         0         0         0         0         0
         0         0         0         0         0         0         0         0
         0         0         0         0         0         0         0         0
         0         0         0         0         0         0         0         0
         0         0         0         0         0         0         0         0
         0         0         0         0         0         0         0         0
         0         0         0         0         0         0         0         0
         0         0         0         0         0         0         0         0
         0         0         0         0         0         0         0         0
         0         0         0         0         0         0         0         0
         0         0         0         0         0         0         0         0
         0         0         0         0         0         0         0         0
         0         0         0         0         0         0         0         0
         0         0         0         0         0         0         0         0
         0         0         0         0         0         0         0         0
         0         0         0         0         0         0         0         0
         0         0         0         0         0         0         0         0
         0         0         0         0         0         0         0         0
         0         0         0         0         0         0         0         0
         0         0         0         0         0         0         0         0
         0         0         0         0         0         0         0         0
         0         0         0         0         0         0         0         0
         0         0         0         0         0         0         0         0
         0         0         0         0         0         0         0         0
         0         0         0         0         0         0         0         0
         0         0         0         0         0         0         0         0
         0         0         0         0         0         0         0         0
         0         0         0         0         0         0         0         0
         0         0         0         0         0         0         0         0
         0         0         0         0         0         0         0         0
         0         0         0         0         0         0         0         0
         0         0         0         0         0         0         0         0
         0         0         0         0         0         0         0         0
         0         0         0         0         0         0         0         0
         0         0         0         0         0         0         0         0
         0         0         0         0         0         0         0         0
         0         0         0         0         0         0         0         0
         0         0         0         0         0         0         0         0
         0         0         0         0         0         0         0         0
         0         0         0         0         0         0         0         0
         0         0         0         0         0         0         0         0
         0         0         0         0         0         0         0         0
         0         0         0         0         0         0         0         0
         0         0         0         0         0         0         0         0
         0         0         0         0         0         0         0         0
         0         0         0         0         0         0         0         0
         0         0         0         0         0         0         0         0
         0         0         0         0         0         0         0         0
         0         0         0         0         0         0         0         0
         0         0         0         0         0         0         0         0
         0         0         0         0         0         0         0         0
         0         0         0         0         0         0         0         0
         0         0         0         0         0         0         0         0
         0         0         0         0         0         0         0         0
         0         0         0         0         0         0         0         0
         0         0         0         0         0         0         0         0
         0         0         0         0         0         0         0         0
         0         0         0         0         0         0         0         0
         0         0         0         0         0         0         0         0
         0         0         0         0         0         0         0         0
         0         0         0         0         0         0         0         0
         0         0         0         0         0         0         0         0
         0         0         0         0         0         0         0         0
         0         0         0         0         0         0         0         0
         0         0         0         0         0         0         0         0
         0         0         0         0         0         0         0         0
         0         0         0         0         0         0         0         0
         0         0         0         0         0         0         0         0
         0         0         0         0         0         0         0         0
         0         0         0         0         0         0         0         0
         0         0         0         0         0         0         0         0
         0         0         0         0         0         0         0         0
         0         0         0         0         0         0         0         0
         0         0         0         0         0         0         0         0
         0         0         0         0         0         0         0         0
         0         0         0         0         0         0         0         0
         0         0         0         0         0         0         0         0
         0         0         0         0         0         0         0         0
         0         0         0         0         0         0         0         0
         0         0         0         0         0         0         0         0
         0         0         0         0         0         0         0         0
         0         0         0         0         0         0         0         0
         0         0         0         0         0         0         0         0
         0         0         0         0         0         0         0         0
         0         0         0         0         0         0         0         0
         0         0         0         0         0         0         0         0
         0         0         0         0         0         0         0         0
         0         0         0         0         0         0         0         0
         0         0         0         0         0         0         0         0
         0         0         0         0         0         0         0         0
         0         0         0         0         0         0         0         0
         0         0         0         0         0         0         0         0
         0         0         0         0         0         0         0         0
         0         0         0         0         0         0         0         0
         0         0         0         0         0         0         0         0
         0         0         0         0         0         0         0         0
         0         0         0         0         0         0         0         0
         0         0         0         0         0         0         0         0
         0         0         0         0         0         0         0         0
         0         0         0         0         0         0         0         0
         0         0         0         0         0         0         0         0
         0         0         0         0         0         0         0         0
         0         0         0         0         0         0         0         0
         0         0         0         0         0         0         0         0
         0         0         0         0         0         0         0         0
         0         0         0         0         0         0         0         0
         0         0         0         0         0         0         0         0
         0         0         0         0         0         0         0         0
         0         0         0         0         0         0         0         0
         0         0         0         0         0         0         0         0
         0         0         0         0         0         0         0         0
         0         0         0         0         0         0         0         0
         0         0         0         0         0         0         0         0
         0         0         0         0         0         0         0         0
         0         0         0         0         0         0         0         0
         0         0         0         0         0         0         0         0
         0         0         0         0         0         0         0         0
         0         0         0         0         0         0         0         0
         0         0         0         0         0         0         0         0
         0         0         0         0         0         0         0         0
         0         0         0         0         0         0         0         0
         0         0         0         0         0         0         0         0
         0         0         0         0         0         0         0         0
         0         0         0         0         0         0         0         0
         0         0         0         0         0         0         0         0
         0         0         0         0         0         0         0         0
         0         0         0         0         0         0         0         0
         0         0         0         0         0         0         0         0
         0         0         0         0         0         0         0         0
         0         0         0         0         0         0         0         0
         0         0         0         0         0         0         0         0
         0         0         0         0         0         0         0         0
         0         0         0         0         0         0         0         0
         0         0         0         0         0         0         0         0
         0         0         0         0         0         0         0         0
         0         0         0         0         0         0         0         0
         0         0         0         0         0         0         0         0
         0         0         0         0         0         0         0         0
         0         0         0         0         0         0         0         0
         0         0         0         0         0         0         0         0
         0         0         0         0         0         0         0         0
         0         0         0         0         0         0         0         0
         0         0         0         0         0         0         0         0
         0         0         0         0         0         0         0         0
         0         0         0         0         0         0         0         0
         0         0         0         0         0         0         0         0
         0         0         0         0         0         0         0         0
         0         0         0         0         0         0         0         0
         0         0         0         0         0         0         0         0
         0         0         0         0         0         0         0         0
         0         0         0         0         0         0         0         0
         0         0         0         0         0         0         0         0
         0         0         0         0         0         0         0         0
         0         0         0         0         0         0         0         0
         0         0         0         0         0         0         0         0
         0         0         0         0         0         0         0         0
         0         0         0         0         0         0         0         0
         0         0         0         0         0         0         0         0
         0         0         0         0         0         0         0         0
         0         0         0         0         0         0         0         0
         0         0         0         0         0         0         0         0
         0         0         0         0         0         0         0         0
         0         0         0         0         0         0         0         0
         0         0         0         0         0         0         0         0
         0         0         0         0         0         0         0         0
         0         0         0         0         0         0         0         0
         0         0         0         0         0         0         0         0
         0         0         0         0         0         0         0         0
         0         0         0         0         0         0         0         0
         0         0         0         0         0         0         0         0
         0         0         0         0         0         0         0         0
         0         0         0         0         0         0         0         0
         0         0         0         0         0         0         0         0
         0         0         0         0         0         0         0         0
         0         0         0         0         0         0         0         0
         0         0         0         0         0         0         0         0
         0         0         0         0         0         0         0         0
         0         0         0         0         0         0         0         0
         0         0         0         0         0         0         0         0
         0         0         0         0         0         0         0         0
         0         0         0         0         0         0         0         0
         0         0         0         0         0         0         0         0
         0         0         0         0         0         0         0         0
         0         0         0         0         0         0         0         0
         0         0         0         0         0         0         0         0
         0         0         0         0         0         0         0         0
         0         0         0         0         0         0         0         0
         0         0         0         0         0         0         0         0
         0         0         0         0         0         0         0         0
         0         0         0         0         0         0         0         0
         0         0         0         0         0         0         0         0
         0         0         0         0         0         0         0         0
         0         0         0         0         0         0         0         0
         0         0         0         0         0         0         0         0
         0         0         0         0         0         0         0         0
         0         0         0         0         0         0         0         0
         0         0         0         0         0         0         0         0
         0         0         0         0         0         0         0         0
         0         0         0         0         0         0         0         0
         0         0         0         0         0         0         0         0
         0         0         0         0         0         0         0         0
         0         0         0         0         0         0         0         0
         0         0         0         0         0         0         0         0
         0         0         0         0         0         0         0         0
         0         0         0         0         0         0         0         0
         0         0         0         0         0         0         0         0
         0         0         0         0         0         0         0         0
         0         0         0         0         0         0         0         0
         0         0         0         0         0         0         0         0
         0         0         0         0         0         0         0         0
         0         0         0         0         0         0         0         0
         0         0         0         0         0         0         0         0
         0         0         0         0         0         0         0         0
         0         0         0         0         0         0         0         0
         0         0         0         0         0         0         0         0
         0         0         0         0         0         0         0         0
         0         0         0         0         0         0         0         0
         0         0         0         0         0         0         0         0
         0         0         0         0         0         0         0         0
         0         0         0         0         0         0         0         0
         0         0         0         0         0         0         0         0
         0         0         0         0         0         0         0         0
         0         0         0         0         0         0         0         0
         0         0         0         0         0         0         0         0
         0         0         0         0         0         0         0         0
         0         0         0         0         0         0         0         0
         0         0         0         0         0         0         0         0
         0         0         0         0         0         0         0         0
         0         0         0         0         0         0         0         0
         0         0         0         0         0         0         0         0
         0         0         0         0         0         0         0         0
         0         0         0         0         0         0         0         0
         0         0         0         0         0         0         0         0
         0         0         0         0         0         0         0         0
         0         0         0         0         0         0         0         0
         0         0         0         0         0         0         0         0
         0         0         0         0         0         0         0         0
         0         0         0         0         0         0         0         0
         0         0         0         0         0         0         0         0
         0         0         0         0         0         0         0         0
         0         0         0         0         0         0         0         0
         0         0         0         0         0         0         0         0
         0         0         0         0         0         0         0         0
         0         0         0         0         0         0         0         0
         0         0         0         0         0         0         0         0
         0         0         0         0         0         0         0         0
         0         0         0         0         0         0         0         0
         0         0         0         0         0         0         0         0
         0         0         0         0         0         0         0         0
         0         0         0         0         0         0         0         0
         0         0         0         0         0         0         0         0
         0         0         0         0         0         0         0         0
         0         0         0         0         0         0         0         0
         0         0         0         0         0         0         0         0
         0         0         0         0         0         0         0         0
         0         0         0         0         0         0         0         0
         0         0         0         0         0         0         0         0
         0         0         0         0         0         0         0         0
         0         0         0         0         0         0         0         0
         0         0         0         0         0         0         0         0
         0         0         0         0         0         0         0         0
         0         0         0         0         0         0         0         0
         0         0         0         0         0         0         0         0
         0         0         0         0         0         0         0         0
         0         0         0         0         0         0         0         0
         0         0         0         0         0         0         0         0
         0         0         0         0         0         0         0         0
         0         0         0         0         0         0         0         0
         0         0         0         0         0         0         0         0
         0         0         0         0         0         0         0         0
         0         0         0         0         0         0         0         0
         0         0         0         0         0         0         0         0
         0         0         0         0         0         0         0         0
         0         0         0         0         0         0         0         0
         0         0         0         0         0         0         0         0
         0         0         0         0         0         0         0         0
         0         0         0         0         0         0         0         0
         0         0         0         0         0         0         0         0
         0         0         0         0         0         0         0         0
         0         0         0         0         0         0         0         0
         0         0         0         0         0         0         0         0
         0         0         0         0         0         0         0         0
         0         0         0         0         0         0         0         0
         0         0         0         0         0         0         0         0
         0         0         0         0         0         0         0         0
         0         0         0         0         0         0         0         0
         0         0         0         0         0         0         0         0
         0         0         0         0         0         0         0         0
         0         0         0         0         0         0         0         0
         0         0         0         0         0         0         0         0
         0         0         0         0         0         0         0         0
         0         0         0         0         0         0         0         0
         0         0         0         0         0         0         0         0
         0         0         0         0         0         0         0         0
         0         0         0         0         0         0         0         0
         0         0         0         0         0         0         0         0
         0         0         0         0         0         0         0         0
         0         0         0         0         0         0         0         0
         0         0         0         0         0         0         0         0
         0         0         0         0         0         0         0         0
         0         0         0         0         0         0         0         0
         0         0         0         0         0         0         0         0
         0         0         0         0         0         0         0         0
         0         0         0         0         0         0         0         0
         0         0         0         0         0         0         0         0
         0         0         0         0         0         0         0         0
         0         0         0         0         0         0         0         0
         0         0         0         0         0         0         0         0
         0         0         0         0         0         0         0         0
         0         0         0         0         0         0         0         0
         0         0         0         0         0         0         0         0
         0         0         0         0         0         0         0         0
         0         0         0         0         0         0         0         0
         0         0         0         0         0         0         0         0
         0         0         0         0         0         0         0         0
         0         0         0         0         0         0         0         0
         0         0         0         0         0         0         0         0
         0         0         0         0         0         0         0         0
         0         0         0         0         0         0         0         0
         0         0         0         0         0         0         0         0
         0         0         0         0         0         0         0         0
         0         0         0         0         0         0         0         0
         0         0         0         0         0         0         0         0
         0         0         0         0         0         0         0         0
         0         0         0         0         0         0         0         0
         0         0         0         0         0         0         0         0
         0         0         0         0         0         0         0         0
         0         0         0         0         0         0         0         0
         0         0         0         0         0         0         0         0
         0         0         0         0         0         0         0         0
         0         0         0         0         0         0         0         0
         0         0         0         0         0         0         0         0
         0         0         0         0         0         0         0         0
         0         0         0         0         0         0         0         0
         0         0         0         0         0         0         0         0
         0         0         0         0         0         0         0         0
         0         0         0         0         0         0         0         0
         0         0         0         0         0         0         0         0
         0         0         0         0         0         0         0         0
         0         0         0         0         0         0         0         0
         0         0         0         0         0         0         0         0
         0         0         0         0         0         0         0         0
         0         0         0         0         0         0         0         0
         0         0         0         0         0         0         0         0
         0         0         0         0         0         0         0         0
         0         0         0         0         0         0         0         0
         0         0         0         0         0         0         0         0
         0         0         0         0         0         0         0         0
         0         0         0         0         0         0         0         0
         0         0         0         0         0         0         0         0
         0         0         0         0         0         0         0         0
         0         0         0         0         0         0         0         0
         0         0         0         0         0         0         0         0
         0         0         0         0         0         0         0         0
         0         0         0         0         0         0         0         0
         0         0         0         0         0         0         0         0
         0         0         0         0         0         0         0         0
         0         0         0         0         0         0         0         0
         0         0         0         0         0         0         0         0
         0         0         0         0         0         0         0         0
         0         0         0         0         0         0         0         0
         0         0         0         0         0         0         0         0
         0         0         0         0         0         0         0         0
         0         0         0         0         0         0         0         0
         0         0         0         0         0         0         0         0
         0         0         0         0         0         0         0         0
         0         0         0         0         0         0         0         0
         0         0         0         0         0         0         0         0
         0         0         0         0         0         0         0         0
         0         0         0         0         0         0         0         0
         0         0         0         0         0         0         0         0
         0         0         0         0         0         0         0         0
         0         0         0         0         0         0         0         0
         0         0         0         0         0         0         0         0
         0         0         0         0         0         0         0         0
         0         0         0         0         0         0         0         0
         0         0         0         0         0         0         0         0
         0         0         0         0         0         0         0         0
         0         0         0         0         0         0         0         0
         0         0         0         0         0         0         0         0
         0         0         0         0         0         0         0         0
         0         0         0         0         0         0         0         0
         0         0         0         0         0         0         0         0
         0         0         0         0         0         0         0         0
         0         0         0         0         0         0         0         0
         0         0         0         0         0         0         0         0
         0         0         0         0         0         0         0         0
         0         0         0         0         0         0         0         0
         0         0         0         0         0         0         0         0
         0         0         0         0         0         0         0         0
         0         0         0         0         0         0         0         0
         0         0         0         0         0         0         0         0
         0         0         0         0         0         0         0         0
         0         0         0         0         0         0         0         0
         0         0         0         0         0         0         0         0
         0         0         0         0         0         0         0         0
         0         0         0         0         0         0         0         0
         0         0         0         0         0         0         0         0
         0         0         0         0         0         0         0         0
         0         0         0         0         0         0         0         0
         0         0         0         0         0         0         0         0
         0         0         0         0         0         0         0         0
         0         0         0         0         0         0         0         0
         0         0         0         0         0         0         0         0
         0         0         0         0         0         0         0         0
         0         0         0         0         0         0         0         0
         0         0         0         0         0         0         0         0
         0         0         0         0         0         0         0         0
         0         0         0         0         0         0         0         0
         0         0         0         0         0         0         0         0
         0         0         0         0         0         0         0         0
         0         0         0         0         0         0         0         0
         0         0         0         0         0         0         0         0
         0         0         0         0         0         0         0         0
         0         0         0         0         0         0         0         0
         0         0         0         0         0         0         0         0
         0         0         0         0         0         0         0         0
         0         0         0         0         0         0         0         0
         0         0         0         0         0         0         0         0
         0         0         0         0         0         0         0         0
         0         0         0         0         0         0         0         0
         0         0         0         0         0         0         0         0
         0         0         0         0         0         0         0         0
         0         0         0         0         0         0         0         0
         0         0         0         0         0         0         0         0
         0         0         0         0         0         0         0         0
         0         0         0         0         0         0         0         0
         0         0         0         0         0         0         0         0
         0         0         0         0         0         0         0         0
         0         0         0         0         0         0         0         0
         0         0         0         0         0         0         0         0
         0         0         0         0         0         0         0         0
         0         0         0         0         0         0         0         0
         0         0         0         0         0         0         0         0
         0         0         0         0         0         0         0         0
         0         0         0         0         0         0         0         0
         0         0         0         0         0         0         0         0
         0         0         0         0         0         0         0         0
         0         0         0         0         0         0         0         0
         0         0         0         0         0         0         0         0
         0         0         0         0         0         0         0         0
         0         0         0         0         0         0         0         0
         0         0         0         0         0         0         0         0
         0         0         0         0         0         0         0         0
         0         0         0         0         0         0         0         0
         0         0         0         0         0         0         0         0
         0         0         0         0         0         0         0         0
         0         0         0         0         0         0         0         0
         0         0         0         0         0         0         0         0
         0         0         0         0         0         0         0         0
         0         0         0         0         0         0         0         0
         0         0         0         0         0         0         0         0
         0         0         0         0         0         0         0         0
         0         0         0         0         0         0         0         0
         0         0         0         0         0         0         0         0
         0         0         0         0         0         0         0         0
         0         0         0         0         0         0         0         0
         0         0         0         0         0         0         0         0
         0         0         0         0         0         0         0         0
         0         0         0         0         0         0         0         0
         0         0         0         0         0         0         0         0
         0         0         0         0         0         0         0         0
         0         0         0         0         0         0         0         0
         0         0         0         0         0         0         0         0
         0         0         0         0         0         0         0         0
         0         0         0         0         0         0         0         0
         0         0         0         0         0         0         0         0
         0         0         0         0         0         0         0         0
         0         0         0         0         0         0         0         0
         0         0         0         0         0         0         0         0
         0         0         0         0         0         0         0         0
         0         0         0         0         0         0         0         0
         0         0         0         0         0         0         0         0
         0         0         0         0         0         0         0         0
         0         0         0         0         0         0         0         0
         0         0         0         0         0         0         0         0
         0         0         0         0         0         0         0         0
         0         0         0         0         0         0         0         0
         0         0         0         0         0         0         0         0
         0         0         0         0         0         0         0         0
         0         0         0         0         0         0         0         0
         0         0         0         0         0         0         0         0
         0         0         0         0         0         0         0         0
         0         0         0         0         0         0         0         0
         0         0         0         0         0         0         0         0
         0         0         0         0         0         0         0         0
         0         0         0         0         0         0         0         0
         0         0         0         0         0         0         0         0
         0         0         0         0         0         0         0         0
         0         0         0         0         0         0         0         0
         0         0         0         0         0         0         0         0
         0         0         0         0         0         0         0         0
         0         0         0         0         0         0         0         0
         0         0         0         0         0         0         0         0
         0         0         0         0         0         0         0         0
         0         0         0         0         0         0         0         0
         0         0         0         0         0         0         0         0
         0         0         0         0         0         0         0         0
         0         0         0         0         0         0         0         0
         0         0         0         0         0         0         0         0
         0         0         0         0         0         0         0         0
         0         0         0         0         0         0         0         0
         0         0         0         0         0         0         0         0
         0         0         0         0         0         0         0         0
         0         0         0         0         0         0         0         0
         0         0         0         0         0         0         0         0
         0         0         0         0         0         0         0         0
         0         0         0         0         0         0         0         0
         0         0         0         0         0         0         0         0
         0         0         0         0         0         0         0         0
         0         0         0         0         0         0         0         0
         0         0         0         0         0         0         0         0
         0         0         0         0         0         0         0         0
         0         0         0         0         0         0         0         0
         0         0         0         0         0         0         0         0
         0         0         0         0         0         0         0         0
         0         0         0         0         0         0         0         0
         0         0         0         0         0         0         0         0
         0         0         0         0         0         0         0         0
         0         0         0         0         0         0         0         0
         0         0         0         0         0         0         0         0
         0         0         0         0         0         0         0         0
         0         0         0         0         0         0         0         0
         0         0         0         0         0         0         0         0
         0         0         0         0         0         0         0         0
         0         0         0         0         0         0         0         0
         0         0         0         0         0         0         0         0
         0         0         0         0         0         0         0         0
         0         0         0         0         0         0         0         0
         0         0         0         0         0         0         0         0
         0         0         0         0         0         0         0         0
         0         0         0         0         0         0         0         0
         0         0         0         0         0         0         0         0
         0         0         0         0         0         0         0         0
         0         0         0         0         0         0         0         0
         0         0         0         0         0         0         0         0
         0         0         0         0         0         0         0         0
         0         0         0         0         0         0         0         0
         0         0         0         0         0         0         0         0
         0         0         0         0         0         0         0         0
         0         0         0         0         0         0         0         0
         0         0         0         0         0         0         0         0
         0         0         0         0         0         0         0         0
         0         0         0         0         0         0         0         0
         0         0         0         0         0         0         0         0
         0         0         0         0         0         0         0         0
         0         0         0         0         0         0         0         0
         0         0         0         0         0         0         0         0
         0         0         0         0         0         0         0         0
         0         0         0         0         0         0         0         0
         0         0         0         0         0         0         0         0
         0         0         0         0         0         0         0         0
         0         0         0         0         0         0         0         0
         0         0         0         0         0         0         0         0
         0         0         0         0         0         0         0         0
         0         0         0         0         0         0         0         0
         0         0         0         0         0         0         0         0
         0         0         0         0         0         0         0         0
         0         0         0         0         0         0         0         0
         0         0         0         0         0         0         0         0
         0         0         0         0         0         0         0         0
         0         0         0         0         0         0         0         0
         0         0         0         0         0         0         0         0
         0         0         0         0         0         0         0         0
         0         0         0         0         0         0         0         0
         0         0         0         0         0         0         0         0
         0         0         0         0         0         0         0         0
         0         0         0         0         0         0         0         0
         0         0         0         0         0         0         0         0
         0         0         0         0         0         0         0         0
         0         0         0         0         0         0         0         0
         0         0         0         0         0         0         0         0
         0         0         0         0         0         0         0         0
         0         0         0         0         0         0         0         0
         0         0         0         0         0         0         0         0
         0         0         0         0         0         0         0         0
         0         0         0         0         0         0         0         0
         0         0         0         0         0         0         0         0
         0         0         0         0         0         0         0         0
         0         0         0         0         0         0         0         0
         0         0         0         0         0         0         0         0
         0         0         0         0         0         0         0         0
         0         0         0         0         0         0         0         0
         0         0         0         0         0         0         0         0
         0         0         0         0         0         0         0         0
         0         0         0         0         0         0         0         0
         0         0         0         0         0         0         0         0
         0         0         0         0         0         0         0         0
         0         0         0         0         0         0         0         0
         0         0         0         0         0         0         0         0
         0         0         0         0         0         0         0         0
         0         0         0         0         0         0         0         0
         0         0         0         0         0         0         0         0
         0         0         0         0         0         0         0         0
         0         0         0         0         0         0         0         0
         0         0         0         0         0         0         0         0
         0         0         0         0         0         0         0         0
         0         0         0         0         0         0         0         0
         0         0         0         0         0         0         0         0
         0         0         0         0         0         0         0         0
         0         0         0         0         0         0         0         0
         0         0         0         0         0         0         0         0
         0         0         0         0         0         0         0         0
         0         0         0         0         0         0         0         0
         0         0         0         0         0         0         0         0
         0         0         0         0         0         0         0         0
         0         0         0         0         0         0         0         0
         0         0         0         0         0         0         0         0
         0         0         0         0         0         0         0         0
         0         0         0         0         0         0         0         0
         0         0         0         0         0         0         0         0
         0         0         0         0         0         0         0         0
         0         0         0         0         0         0         0         0
         0         0         0         0         0         0         0         0
         0         0         0         0         0         0         0         0
         0         0         0         0         0         0         0         0
         0         0         0         0         0         0         0         0
         0         0         0         0         0         0         0         0
         0         0         0         0         0         0         0         0
         0         0         0         0         0         0         0         0
         0         0         0         0         0         0         0         0
         0         0         0         0         0         0         0         0
         0         0         0         0         0         0         0         0
         0         0         0         0         0         0         0         0
         0         0         0         0         0         0         0         0
         0         0         0         0         0         0         0         0
         0         0         0         0         0         0         0         0
         0         0         0         0         0         0         0         0
         0         0         0         0         0         0         0         0
         0         0         0         0         0         0         0         0
         0         0         0         0         0         0         0         0
         0         0         0         0         0         0         0         0
         0         0         0         0         0         0         0         0
         0         0         0         0         0         0         0         0
         0         0         0         0         0         0         0         0
         0         0         0         0         0         0         0         0
         0         0         0         0         0         0         0         0
         0         0         0         0         0         0         0         0
         0         0         0         0         0         0         0         0
         0         0         0         0         0         0         0         0
         0         0         0         0         0         0         0         0
         0         0         0         0         0         0         0         0
         0         0         0         0         0         0         0         0
         0         0         0         0         0         0         0         0
         0         0         0         0         0         0         0         0
         0         0         0         0         0         0         0         0
         0         0         0         0         0         0         0         0
         0         0         0         0         0         0         0         0
         0         0         0         0         0         0         0         0
         0         0         0         0         0         0         0         0
         0         0         0         0         0         0         0         0
         0         0         0         0         0         0         0         0
         0         0         0         0         0         0         0         0
         0         0         0         0         0         0         0         0
         0         0         0         0         0         0         0         0
         0         0         0         0         0         0         0         0
         0         0         0         0         0         0         0         0
         0         0         0         0         0         0         0         0
         0         0         0         0         0         0         0         0
         0         0         0         0         0         0         0         0
         0         0         0         0         0         0         0         0
         0         0         0         0         0         0         0         0
         0         0         0         0         0         0         0         0
         0         0         0         0         0         0         0         0
         0         0         0         0         0         0         0         0
         0         0         0         0         0         0         0         0
         0         0         0         0         0         0         0         0
         0         0         0         0         0         0         0         0
         0         0         0         0         0         0         0         0
         0         0         0         0         0         0         0         0
         0         0         0         0         0         0         0         0
         0         0         0         0         0         0         0         0
         0         0         0         0         0         0         0         0
         0         0         0         0         0         0         0         0
         0         0         0         0         0         0         0         0
         0         0         0         0         0         0         0         0
         0         0         0         0         0         0         0         0
         0         0         0         0         0         0         0         0
         0         0         0         0         0         0         0         0
         0         0         0         0         0         0         0         0
         0         0         0         0         0         0         0         0
         0         0         0         0         0         0         0         0
         0         0         0         0         0         0         0         0
         0         0         0         0         0         0         0         0
         0         0         0         0         0         0         0         0
         0         0         0         0         0         0         0         0
         0         0         0         0         0         0         0         0
         0         0         0         0         0         0         0         0
         0         0         0         0         0         0         0         0
         0         0         0         0         0         0         0         0
         0         0         0         0         0         0         0         0
         0         0         0         0         0         0         0         0
         0         0         0         0         0         0         0         0
         0         0         0         0         0         0         0         0
         0         0         0         0         0         0         0         0
         0         0         0         0         0         0         0         0
         0         0         0         0         0         0         0         0
         0         0         0         0         0         0         0         0
         0         0         0         0         0         0         0         0
         0         0         0         0         0         0         0         0
         0         0         0         0         0         0         0         0
         0         0         0         0         0         0         0         0
         0         0         0         0         0         0         0         0
         0         0         0         0         0         0         0         0
         0         0         0         0         0         0         0         0
         0         0         0         0         0         0         0         0
         0         0         0         0         0         0         0         0
         0         0         0         0         0         0         0         0
         0         0         0         0         0         0         0         0
         0         0         0         0         0         0         0         0
         0         0         0         0         0         0         0         0
         0         0         0         0         0         0         0         0
         0         0         0         0         0         0         0         0
         0         0         0         0         0         0         0         0
         0         0         0         0         0         0         0         0
         0         0         0         0         0         0         0         0
         0         0         0         0         0         0         0         0
         0         0         0         0         0         0         0         0
         0         0         0         0         0         0         0         0
         0         0         0         0         0         0         0         0
         0         0         0         0         0         0         0         0
         0         0         0         0         0         0         0         0
         0         0         0         0         0         0         0         0
         0         0         0         0         0         0         0         0
         0         0         0         0         0         0         0         0
         0         0         0         0         0         0         0         0
         0         0         0         0         0         0         0         0
         0         0         0         0         0         0         0         0
         0         0         0         0         0         0         0         0
         0         0         0         0         0         0         0         0
         0         0         0         0         0         0         0         0
         0         0         0         0         0         0         0         0
         0         0         0         0         0         0         0         0
         0         0         0         0         0         0         0         0
         0         0         0         0         0         0         0         0
         0         0         0         0         0         0         0         0
         0         0         0         0         0         0         0         0
         0         0         0         0         0         0         0         0
         0         0         0         0         0         0         0         0
         0         0         0         0         0         0         0         0
         0         0         0         0         0         0         0         0
         0         0         0         0         0         0         0         0
         0         0         0         0         0         0         0         0
         0         0         0         0         0         0         0         0
         0         0         0         0         0         0         0         0
         0         0         0         0         0         0         0         0
         0         0         0         0         0         0         0         0
         0         0         0         0         0         0         0         0
         0         0         0         0         0         0         0         0
         0         0         0         0         0         0         0         0
         0         0         0         0         0         0         0         0
         0         0         0         0         0         0         0         0
         0         0         0         0         0         0         0         0
         0         0         0         0         0         0         0         0
         0         0         0         0         0         0         0         0
         0         0         0         0         0         0         0         0
         0         0         0         0         0         0         0         0
         0         0         0         0         0         0         0         0
         0         0         0         0         0         0         0         0
         0         0         0         0         0         0         0         0
         0         0         0         0         0         0         0         0
         0         0         0         0         0         0         0         0
         0         0         0         0         0         0         0         0
         0         0         0         0         0         0         0         0
         0         0         0         0         0         0         0         0
         0         0         0         0         0         0         0         0
         0         0         0         0         0         0         0         0
         0         0         0         0         0         0         0         0
         0         0         0         0         0         0         0         0
         0         0         0         0         0         0         0         0
         0         0         0         0         0         0         0         0
         0         0         0         0         0         0         0         0
         0         0         0         0         0         0         0         0
         0         0         0         0         0         0         0         0
         0         0         0         0         0         0         0         0
         0         0         0         0         0         0         0         0
         0         0         0         0         0         0         0         0
         0         0         0         0         0         0         0         0
         0         0         0         0         0         0         0         0
         0         0         0         0         0         0         0         0
         0         0         0         0         0         0         0         0
         0         0         0         0         0         0         0         0
         0         0         0         0         0         0         0         0
         0         0         0         0         0         0         0         0
         0         0         0         0         0         0         0         0
         0         0         0         0         0         0         0         0
         0         0         0         0         0         0         0         0
         0         0         0         0         0         0         0         0
         0         0         0         0         0         0         0         0
         0         0         0         0         0         0         0         0
         0         0         0         0         0         0         0         0
         0         0         0         0         0         0         0         0
         0         0         0         0         0         0         0         0
         0         0         0         0         0         0         0         0
         0         0         0         0         0         0         0         0
         0         0         0         0         0         0         0         0
         0         0         0         0         0         0         0         0
         0         0         0         0         0         0         0         0
         0         0         0         0         0         0         0         0
         0         0         0         0         0         0         0         0
         0         0         0         0         0         0         0         0
         0         0         0         0         0         0         0         0
         0         0         0         0         0         0         0         0
         0         0         0         0         0         0         0         0
         0         0         0         0         0         0         0         0
         0         0         0         0         0         0         0         0
         0         0         0         0         0         0         0         0
         0         0         0         0         0         0         0         0
         0         0         0         0         0         0         0         0
         0         0         0         0         0         0         0         0
         0         0         0         0         0         0         0         0
         0         0         0         0         0         0         0         0
         0         0         0         0         0         0         0         0
         0         0         0         0         0         0         0         0
         0         0         0         0         0         0         0         0
         0         0         0         0         0         0         0         0
         0         0         0         0         0         0         0         0
         0         0         0         0         0         0         0         0
         0         0         0         0         0         0         0         0
         0         0         0         0         0         0         0         0
         0         0         0         0         0         0         0         0
         0         0         0         0         0         0         0         0
         0         0         0         0         0         0         0         0
         0         0         0         0         0         0         0         0
         0         0         0         0         0         0         0         0
         0         0         0         0         0         0         0         0
         0         0         0         0         0         0         0         0
         0         0         0         0         0         0         0         0
         0         0         0         0         0         0         0         0
         0         0         0         0         0         0         0         0
         0         0         0         0         0         0         0         0
         0         0         0         0         0         0         0         0
         0         0         0         0         0         0         0         0
         0         0         0         0         0         0         0         0
         0         0         0         0         0         0         0         0
         0         0         0         0         0         0         0         0
         0         0         0         0         0         0         0         0
         0         0         0         0         0         0         0         0
         0         0         0         0         0         0         0         0
         0         0         0         0         0         0         0         0
         0         0         0         0         0         0         0         0
         0         0         0         0         0         0         0         0
         0         0         0         0         0         0         0         0
         0         0         0         0         0         0         0         0
         0         0         0         0         0         0         0         0
         0         0         0         0         0         0         0         0
         0         0         0         0         0         0         0         0
         0         0         0         0         0         0         0         0
         0         0         0         0         0         0         0         0
         0         0         0         0         0         0         0         0
         0         0         0         0         0         0         0         0
         0         0         0         0         0         0         0         0
         0         0         0         0         0         0         0         0
         0         0         0         0         0         0         0         0
         0         0         0         0         0         0         0         0
         0         0         0         0         0         0         0         0
         0         0         0         0         0         0         0         0
         0         0         0         0         0         0         0         0
         0         0         0         0         0         0         0         0
         0         0         0         0         0         0         0         0
         0         0         0         0         0         0         0         0
         0         0         0         0         0         0         0         0
         0         0         0         0         0         0         0         0
         0         0         0         0         0         0         0         0
         0         0         0         0         0         0         0         0
         0         0         0         0         0         0         0         0
         0         0         0         0         0         0         0         0
         0         0         0         0         0         0         0         0
         0         0         0         0         0         0         0         0
         0         0         0         0         0         0         0         0
         0         0         0         0         0         0         0         0
         0         0         0         0         0         0         0         0
         0         0         0         0         0         0         0         0
         0         0         0         0         0         0         0         0
         0         0         0         0         0         0         0         0
         0         0         0         0         0         0         0         0
         0         0         0         0         0         0         0         0
         0         0         0         0         0         0         0         0
         0         0         0         0         0         0         0         0
         0         0         0         0         0         0         0         0
         0         0         0         0         0         0         0         0
         0         0         0         0         0         0         0         0
         0         0         0         0         0         0         0         0
         0         0         0         0         0         0         0         0
         0         0         0         0         0         0         0         0
         0         0         0         0         0         0         0         0
         0         0         0         0         0         0         0         0
         0         0         0         0         0         0         0         0
         0         0         0         0         0         0         0         0
         0         0         0         0         0         0         0         0
         0         0         0         0         0         0         0         0
         0         0         0         0         0         0         0         0
         0         0         0         0         0         0         0         0
         0         0         0         0         0         0         0         0
         0         0         0         0         0         0         0         0
         0         0         0         0         0         0         0         0
         0         0         0         0         0         0         0         0
         0         0         0         0         0         0         0         0
         0         0         0         0         0         0         0         0
         0         0         0         0         0         0         0         0
         0         0         0         0         0         0         0         0
         0         0         0         0         0         0         0         0
         0         0         0         0         0         0         0         0
         0         0         0         0         0         0         0         0
         0         0         0         0         0         0         0         0
         0         0         0         0         0         0         0         0
         0         0         0         0         0         0         0         0
         0         0         0         0         0         0         0         0
         0         0         0         0         0         0         0         0
         0         0         0         0         0         0         0         0
         0         0         0         0         0         0         0         0
         0         0         0         0         0         0         0         0
         0         0         0         0         0         0         0         0
         0         0         0         0         0         0         0         0
         0         0         0         0         0         0         0         0
         0         0         0         0         0         0         0         0
         0         0         0         0         0         0         0         0
         0         0         0         0         0         0         0         0
         0         0         0         0         0         0         0         0
         0         0         0         0         0         0         0         0
         0         0         0         0         0         0         0         0
         0         0         0         0         0         0         0         0
         0         0         0         0         0         0         0         0
         0         0         0         0         0         0         0         0
         0         0         0         0         0         0         0         0
         0         0         0         0         0         0         0         0
         0         0         0         0         0         0         0         0
         0         0         0         0         0         0         0         0
         0         0         0         0         0         0         0         0
         0         0         0         0         0         0         0         0
         0         0         0         0         0         0         0         0
         0         0         0         0         0         0         0         0
         0         0         0         0         0         0         0         0
         0         0         0         0         0         0         0         0
         0         0         0         0         0         0         0         0
         0         0         0         0         0         0         0         0
         0         0         0         0         0         0         0         0
         0         0         0         0         0         0         0         0
         0         0         0         0         0         0         0         0
         0         0         0         0         0         0         0         0
         0         0         0         0         0         0         0         0
         0         0         0         0         0         0         0         0
         0         0         0         0         0         0         0         0
         0         0         0         0         0         0         0         0
         0         0         0         0         0         0         0         0
         0         0         0         0         0         0         0         0
         0         0         0         0         0         0         0         0
         0         0         0         0         0         0         0         0
         0         0         0         0         0         0         0         0
         0         0         0         0         0         0         0         0
         0         0         0         0         0         0         0         0
         0         0         0         0         0         0         0         0
         0         0         0         0         0         0         0         0
         0         0         0         0         0         0         0         0
         0         0         0         0         0         0         0         0
         0         0         0         0         0         0         0         0
         0         0         0         0         0         0         0         0
         0         0         0         0         0         0         0         0
         0         0         0         0         0         0         0         0
         0         0         0         0         0         0         0         0
         0         0         0         0         0         0         0         0
         0         0         0         0         0         0         0         0
         0         0         0         0         0         0         0         0
         0         0         0         0         0         0         0         0
         0         0         0         0         0         0         0         0
         0         0         0         0         0         0         0         0
         0         0         0         0         0         0         0         0
         0         0         0         0         0         0         0         0
         0         0         0         0         0         0         0         0
         0         0         0         0         0         0         0         0
         0         0         0         0         0         0         0         0
         0         0         0         0         0         0         0         0
         0         0         0         0         0         0         0         0
         0         0         0         0         0         0         0         0
         0         0         0         0         0         0         0         0
         0         0         0         0         0         0         0         0
         0         0         0         0         0         0         0         0
         0         0         0         0         0         0         0         0
         0         0         0         0         0         0         0         0
         0         0         0         0         0         0         0         0
         0         0         0         0         0         0         0         0
         0         0         0         0         0         0         0         0
         0         0         0         0         0         0         0         0
         0         0         0         0         0         0         0         0
         0         0         0         0         0         0         0         0
         0         0         0         0         0         0         0         0
         0         0         0         0         0         0         0         0
         0         0         0         0         0         0         0         0
         0         0         0         0         0         0         0         0
         0         0         0         0         0         0         0         0
         0         0         0         0         0         0         0         0
         0         0         0         0         0         0         0         0
         0         0         0         0         0         0         0         0
         0         0         0         0         0         0         0         0
         0         0         0         0         0         0         0         0
         0         0         0         0         0         0         0         0
         0         0         0         0         0         0         0         0
         0         0         0         0         0         0         0         0
         0         0         0         0         0         0         0         0
         0         0         0         0         0         0         0         0
         0         0         0         0         0         0         0         0
         0         0         0         0         0         0         0         0
         0         0         0         0         0         0         0         0
         0         0         0         0         0         0         0         0
         0         0         0         0         0         0         0         0
         0         0         0         0         0         0         0         0
         0         0         0         0         0         0         0         0
         0         0         0         0         0         0         0         0
         0         0         0         0         0         0         0         0
         0         0         0         0         0         0         0         0
         0         0         0         0         0         0         0         0
         0         0         0         0         0         0         0         0
         0         0         0         0         0         0         0         0
         0         0         0         0         0         0         0         0
         0         0         0         0         0         0         0         0
         0         0         0         0         0         0         0         0
         0         0         0         0         0         0         0         0
         0         0         0         0         0         0         0         0
         0         0         0         0         0         0         0         0
         0         0         0         0         0         0         0         0
         0         0         0         0         0         0         0         0
         0         0         0         0         0         0         0         0
         0         0         0         0         0         0         0         0
         0         0         0         0         0         0         0         0
         0         0         0         0         0         0         0         0
         0         0         0         0         0         0         0         0
         0         0         0         0         0         0         0         0
         0         0         0         0         0         0         0         0
         0         0         0         0         0         0         0         0
         0         0         0         0         0         0         0         0
         0         0         0         0         0         0         0         0
         0         0         0         0         0         0         0         0
         0         0         0         0         0         0         0         0
         0         0         0         0         0         0         0         0
         0         0         0         0         0         0         0         0
         0         0         0         0         0         0         0         0
         0         0         0         0         0         0         0         0
         0         0         0         0         0         0         0         0
         0         0         0         0         0         0         0         0
         0         0         0         0         0         0         0         0
         0         0         0         0         0         0         0         0
         0         0         0         0         0         0         0         0
         0         0         0         0         0         0         0         0
         0         0         0         0         0         0         0         0
         0         0         0         0         0         0         0         0
         0         0         0         0         0         0         0         0
         0         0         0         0         0         0         0         0
         0         0         0         0         0         0         0         0
         0         0         0         0         0         0         0         0
         0         0         0         0         0         0         0         0
         0         0         0         0         0         0         0         0
         0         0         0         0         0         0         0         0
         0         0         0         0         0         0         0         0
         0         0         0         0         0         0         0         0
         0         0         0         0         0         0         0         0
         0         0         0         0         0         0         0         0
         0         0         0         0         0         0         0         0
         0         0         0         0         0         0         0         0
         0         0         0         0         0         0         0         0
         0         0         0         0         0         0         0         0
         0         0         0         0         0         0         0         0
         0         0         0         0         0         0         0         0
         0         0         0         0         0         0         0         0
         0         0         0         0         0         0         0         0
         0         0         0         0         0         0         0         0
         0         0         0         0         0         0         0         0
         0         0         0         0         0         0         0         0
         0         0         0         0         0         0         0         0
         0         0         0         0         0         0         0         0
         0         0         0         0         0         0         0         0
         0         0         0         0         0         0         0         0
         0         0         0         0         0         0         0         0
         0         0         0         0         0         0         0         0
         0         0         0         0         0         0         0         0
         0         0         0         0         0         0         0         0
         0         0         0         0         0         0         0         0
         0         0         0         0         0         0         0         0
         0         0         0         0         0         0         0         0
         0         0         0         0         0         0         0         0
         0         0         0         0         0         0         0         0
         0         0         0         0         0         0         0         0
         0         0         0         0         0         0         0         0
         0         0         0         0         0         0         0         0
         0         0         0         0         0         0         0         0
         0         0         0         0         0         0         0         0
         0         0         0         0         0         0         0         0
         0         0         0         0         0         0         0         0
         0         0         0         0         0         0         0         0
         0         0         0         0         0         0         0         0
         0         0         0         0         0         0         0         0
         0         0         0         0         0         0         0         0
         0         0         0         0         0         0         0         0
         0         0         0         0         0         0         0         0
         0         0         0         0         0         0         0         0
         0         0         0         0         0         0         0         0
         0         0         0         0         0         0         0         0
         0         0         0         0         0         0         0         0
         0         0         0         0         0         0         0         0
         0         0         0         0         0         0         0         0
         0         0         0         0         0         0         0         0
         0         0         0         0         0         0         0         0
         0         0         0         0         0         0         0         0
         0         0         0         0         0         0         0         0
         0         0         0         0         0         0         0         0
         0         0         0         0         0         0         0         0
         0         0         0         0         0         0         0         0
         0         0         0         0         0         0         0         0
         0         0         0         0         0         0         0         0
         0         0         0         0         0         0         0         0
         0         0         0         0         0         0         0         0
         0         0         0         0         0         0         0         0
         0         0         0         0         0         0         0         0
         0         0         0         0         0         0         0         0
         0         0         0         0         0         0         0         0
         0         0         0         0         0         0         0         0
         0         0         0         0         0         0         0         0
         0         0         0         0         0         0         0         0
         0         0         0         0         0         0         0         0
         0         0         0         0         0         0         0         0
         0         0         0         0         0         0         0         0
         0         0         0         0         0         0         0         0
         0         0         0         0         0         0         0         0
         0         0         0         0         0         0         0         0
         0         0         0         0         0         0         0         0
         0         0         0         0         0         0         0         0
         0         0         0         0         0         0         0         0
         0         0         0         0         0         0         0         0
         0         0         0         0         0         0         0         0
         0         0         0         0         0         0         0         0
         0         0         0         0         0         0         0         0
         0         0         0         0         0         0         0         0
         0         0         0         0         0         0         0         0
         0         0         0         0         0         0         0         0
         0         0         0         0         0         0         0         0
         0         0         0         0         0         0         0         0
         0         0         0         0         0         0         0         0
         0         0         0         0         0         0         0         0
         0         0         0         0         0         0         0         0
         0         0         0         0         0         0         0         0
         0         0         0         0         0         0         0         0
         0         0         0         0         0         0         0         0
         0         0         0         0         0         0         0         0
         0         0         0         0         0         0         0         0
         0         0         0         0         0         0         0         0
         0         0         0         0         0         0         0         0
         0         0         0         0         0         0         0         0
         0         0         0         0         0         0         0         0
         0         0         0         0         0         0         0         0
         0         0         0         0         0         0         0         0
         0         0         0         0         0         0         0         0
         0         0         0         0         0         0         0         0
         0         0         0         0         0         0         0         0
         0         0         0         0         0         0         0         0
         0         0         0         0         0         0         0         0
         0         0         0         0         0         0         0         0
         0         0         0         0         0         0         0         0
         0         0         0         0         0         0         0         0
         0         0         0         0         0         0         0         0
         0         0         0         0         0         0         0         0
         0         0         0         0         0         0         0         0
         0         0         0         0         0         0         0         0
         0         0         0         0         0         0         0         0
         0         0         0         0         0         0         0         0
         0         0         0         0         0         0         0         0
         0         0         0         0         0         0         0         0
         0         0         0         0         0         0         0         0
         0         0         0         0         0         0         0         0
         0         0         0         0         0         0         0         0
         0         0         0         0         0         0         0         0
         0         0         0         0         0         0         0         0
         0         0         0         0         0         0         0         0
         0         0         0         0         0         0         0         0
         0         0         0         0         0         0         0         0
         0         0         0         0         0         0         0         0
         0         0         0         0         0         0         0         0
         0         0         0         0         0         0         0         0
         0         0         0         0         0         0         0         0
         0         0         0         0         0         0         0         0
         0         0         0         0         0         0         0         0
         0         0         0         0         0         0         0         0
         0         0         0         0         0         0         0         0
         0         0         0         0         0         0         0         0
         0         0         0         0         0         0         0         0
         0         0         0         0         0         0         0         0
         0         0         0         0         0         0         0         0
         0         0         0         0         0         0         0         0
         0         0         0         0         0         0         0         0
         0         0         0         0         0         0         0         0
         0         0         0         0         0         0         0         0
         0         0         0         0         0         0         0         0
         0         0         0         0         0         0         0         0
         0         0         0         0         0         0         0         0
         0         0         0         0         0         0         0         0
         0         0         0         0         0         0         0         0
         0         0         0         0         0         0         0         0
         0         0         0         0         0         0         0         0
         0         0         0         0         0         0         0         0
         0         0         0         0         0         0         0         0
         0         0         0         0         0         0         0         0
         0         0         0         0         0         0         0         0
         0         0         0         0         0         0         0         0
         0         0         0         0         0         0         0         0
         0         0         0         0         0         0         0         0
         0         0         0         0         0         0         0         0
         0         0         0         0         0         0         0         0
         0         0         0         0         0         0         0         0
         0         0         0         0         0         0         0         0
         0         0         0         0         0         0         0         0
         0         0         0         0         0         0         0         0
         0         0         0         0         0         0         0         0
         0         0         0         0         0         0         0         0
         0         0         0         0         0         0         0         0
         0         0         0         0         0         0         0         0
         0         0         0         0         0         0         0         0
         0         0         0         0         0         0         0         0
         0         0         0         0         0         0         0         0
         0         0         0         0         0         0         0         0
         0         0         0         0         0         0         0         0
         0         0         0         0         0         0         0         0
         0         0         0         0         0         0         0         0
         0         0         0         0         0         0         0         0
         0         0         0         0         0         0         0         0
         0         0         0         0         0         0         0         0
         0         0         0         0         0         0         0         0
         0         0         0         0         0         0         0         0
         0         0         0         0         0         0         0         0
         0         0         0         0         0         0         0         0
         0         0         0         0         0         0         0         0
         0         0         0         0         0         0         0         0
         0         0         0         0         0         0         0         0
         0         0         0         0         0         0         0         0
         0         0         0         0         0         0         0         0
         0         0         0         0         0         0         0         0
         0         0         0         0         0         0         0         0
         0         0         0         0         0         0         0         0
         0         0         0         0         0         0         0         0
         0         0         0         0         0         0         0         0
         0         0         0         0         0         0         0         0
         0         0         0         0         0         0         0         0
         0         0         0         0         0         0         0         0
         0         0         0         0         0         0         0         0
         0         0         0         0         0         0         0         0
         0         0         0         0         0         0         0         0
         0         0         0         0         0         0         0         0
         0         0         0         0         0         0         0         0
         0         0         0         0         0         0         0         0
         0         0         0         0         0         0         0         0
         0         0         0         0         0         0         0         0
         0         0         0         0         0         0         0         0
         0         0         0         0         0         0         0         0
         0         0         0         0         0         0         0         0
         0         0         0         0         0         0         0         0
         0         0         0         0         0         0         0         0
         0         0         0         0         0         0         0         0
         0         0         0         0         0         0         0         0
         0         0         0         0         0         0         0         0
         0         0         0         0         0         0         0         0
         0         0         0         0         0         0         0         0
         0         0         0         0         0         0         0         0
         0         0         0         0         0         0         0         0
         0         0         0         0         0         0         0         0
         0         0         0         0         0         0         0         0
         0         0         0         0         0         0         0         0
         0         0         0         0         0         0         0         0
         0         0         0         0         0         0         0         0
         0         0         0         0         0         0         0         0
         0         0         0         0         0         0         0         0
         0         0         0         0         0         0         0         0
         0         0         0         0         0         0         0         0
         0         0         0         0         0         0         0         0
         0         0         0         0         0         0         0         0
         0         0         0         0         0         0         0         0
         0         0         0         0         0         0         0         0
         0         0         0         0         0         0         0         0
         0         0         0         0         0         0         0         0
         0         0         0         0         0         0         0         0
         0         0         0         0         0         0         0         0
         0         0         0         0         0         0         0         0
         0         0         0         0         0         0         0         0
         0         0         0         0         0         0         0         0
         0         0         0         0         0         0         0         0
         0         0         0         0         0         0         0         0
         0         0         0         0         0         0         0         0
         0         0         0         0         0         0         0         0
         0         0         0         0         0         0         0         0
         0         0         0         0         0         0         0         0
         0         0         0         0         0         0         0         0
         0         0         0         0         0         0         0         0
         0         0         0         0         0         0         0         0
         0         0         0         0         0         0         0         0
         0         0         0         0         0         0         0         0
         0         0         0         0         0         0         0         0
         0         0         0         0         0         0         0         0
         0         0         0         0         0         0         0         0
         0         0         0         0         0         0         0         0
         0         0         0         0         0         0         0         0
         0         0         0         0         0         0         0         0
         0         0         0         0         0         0         0         0
         0         0         0         0         0         0         0         0
         0         0         0         0         0         0         0         0
         0         0         0         0         0         0         0         0
         0         0         0         0         0         0         0         0
         0         0         0         0         0         0         0         0
         0         0         0         0         0         0         0         0
         0         0         0         0         0         0         0         0
         0         0         0         0         0         0         0         0
         0         0         0         0         0         0         0         0
         0         0         0         0         0         0         0         0
         0         0         0         0         0         0         0         0
         0         0         0         0         0         0         0         0
         0         0         0         0         0         0         0         0
         0         0         0         0         0         0         0         0
         0         0         0         0         0         0         0         0
         0         0         0         0         0         0         0         0
         0         0         0         0         0         0         0         0
         0         0         0         0         0         0         0         0
         0         0         0         0         0         0         0         0
         0         0         0         0         0         0         0         0
         0         0         0         0         0         0         0         0
         0         0         0         0         0         0         0         0
         0         0         0         0         0         0         0         0
         0         0         0         0         0         0         0         0
         0         0         0         0         0         0         0         0
         0         0         0         0         0         0         0         0
         0         0         0         0         0         0         0         0
         0         0         0         0         0         0         0         0
         0         0         0         0         0         0         0         0
         0         0         0         0         0         0         0         0
         0         0         0         0         0         0         0         0
         0         0         0         0         0         0         0         0
         0         0         0         0         0         0         0         0
         0         0         0         0         0         0         0         0
         0         0         0         0         0         0         0         0
         0         0         0         0         0         0         0         0
         0         0         0         0         0         0         0         0
         0         0         0         0         0         0         0         0
         0         0         0         0         0         0         0         0
         0         0         0         0         0         0         0         0
         0         0         0         0         0         0         0         0
         0         0         0         0         0         0         0         0
         0         0         0         0         0         0         0         0
         0         0         0         0         0         0         0         0
         0         0         0         0         0         0         0         0
         0         0         0         0         0         0         0         0
         0         0         0         0         0         0         0         0
         0         0         0         0         0         0         0         0
         0         0         0         0         0         0         0         0
         0         0         0         0         0         0         0         0
         0         0         0         0         0         0         0         0
         0         0         0         0         0         0         0         0
         0         0         0         0         0         0         0         0
         0         0         0         0         0         0         0         0
         0         0         0         0         0         0         0         0
         0         0         0         0         0         0         0         0
         0         0         0         0         0         0         0         0
         0         0         0         0         0         0         0         0
         0         0         0         0         0         0         0         0
         0         0         0         0         0         0         0         0
         0         0         0         0         0         0         0         0
         0         0         0         0         0         0         0         0
         0         0         0         0         0         0         0         0
         0         0         0         0         0         0         0         0
         0         0         0         0         0         0         0         0
         0         0         0         0         0         0         0         0
         0         0         0         0         0         0         0         0
         0         0         0         0         0         0         0         0
         0         0         0         0         0         0         0         0
         0         0         0         0         0         0         0         0
         0         0         0         0         0         0         0         0
         0         0         0         0         0         0         0         0
         0         0         0         0         0         0         0         0
         0         0         0         0         0         0         0         0
         0         0         0         0         0         0         0         0
         0         0         0         0         0         0         0         0
         0         0         0         0         0         0         0         0
         0         0         0         0         0         0         0         0
         0         0         0         0         0         0         0         0
         0         0         0         0         0         0         0         0
         0         0         0         0         0         0         0         0
         0         0         0         0         0         0         0         0
         0         0         0         0         0         0         0         0
         0         0         0         0         0         0         0         0
         0         0         0         0         0         0         0         0
         0         0         0         0         0         0         0         0
         0         0         0         0         0         0         0         0
         0         0         0         0         0         0         0         0
         0         0         0         0         0         0         0         0
         0         0         0         0         0         0         0         0
         0         0         0         0         0         0         0         0
         0         0         0         0         0         0         0         0
         0         0         0         0         0         0         0         0
         0         0         0         0         0         0         0         0
         0         0         0         0         0         0         0         0
         0         0         0         0         0         0         0         0
         0         0         0         0         0         0         0         0
         0         0         0         0         0         0         0         0
         0         0         0         0         0         0         0         0
         0         0         0         0         0         0         0         0
         0         0         0         0         0         0         0         0
         0         0         0         0         0         0         0         0
         0         0         0         0         0         0         0         0
         0         0         0         0         0         0         0         0
         0         0         0         0         0         0         0         0
         0         0         0         0         0         0         0         0
         0         0         0         0         0         0         0         0
         0         0         0         0         0         0         0         0
         0         0         0         0         0         0         0         0
         0         0         0         0         0         0         0         0
         0         0         0         0         0         0         0         0
         0         0         0         0         0         0         0         0
         0         0         0         0         0         0         0         0
         0         0         0         0         0         0         0         0
         0         0         0         0         0         0         0         0
         0         0         0         0         0         0         0         0
         0         0         0         0         0         0         0         0
         0         0         0         0         0         0         0         0
         0         0         0         0         0         0         0         0
         0         0         0         0         0         0         0         0
         0         0         0         0         0         0         0         0
         0         0         0         0         0         0         0         0
         0         0         0         0         0         0         0         0
         0         0         0         0         0         0         0         0
         0         0         0         0         0         0         0         0
         0         0         0         0         0         0         0         0
         0         0         0         0         0         0         0         0
         0         0         0         0         0         0         0         0
         0         0         0         0         0         0         0         0
         0         0         0         0         0         0         0         0
         0         0         0         0         0         0         0         0
         0         0         0         0         0         0         0         0
         0         0         0         0         0         0         0         0
         0         0         0         0         0         0         0         0
         0         0         0         0         0         0         0         0
         0         0         0         0         0         0         0         0
         0         0         0         0         0         0         0         0
         0         0         0         0         0         0         0         0
         0         0         0         0         0         0         0         0
         0         0         0         0         0         0         0         0
         0         0         0         0         0         0         0         0
         0         0         0         0         0         0         0         0
         0         0         0         0         0         0         0         0
         0         0         0         0         0         0         0         0
         0         0         0         0         0         0         0         0
         0         0         0         0         0         0         0         0
         0         0         0         0         0         0         0         0
         0         0         0         0         0         0         0         0
         0         0         0         0         0         0         0         0
         0         0         0         0         0         0         0         0
         0         0         0         0         0         0         0         0
         0         0         0         0         0         0         0         0
         0         0         0         0         0         0         0         0
         0         0         0         0         0         0         0         0
         0         0         0         0         0         0         0         0
         0         0         0         0         0         0         0         0
         0         0         0         0         0         0         0         0
         0         0         0         0         0         0         0         0
         0         0         0         0         0         0         0         0
         0         0         0         0         0         0         0         0
         0         0         0         0         0         0         0         0
         0         0         0         0         0         0         0         0
         0         0         0         0         0         0         0         0
         0         0         0         0         0         0         0         0
         0         0         0         0         0         0         0         0
         0         0         0         0         0         0         0         0
         0         0         0         0         0         0         0         0
         0         0         0         0         0         0         0         0
         0         0         0         0         0         0         0         0
         0         0         0         0         0         0         0         0
         0         0         0         0         0         0         0         0
         0         0         0         0         0         0         0         0
         0         0         0         0         0         0         0         0
         0         0         0         0         0         0         0         0
         0         0         0         0         0         0         0         0
         0         0         0         0         0         0         0         0
         0         0         0         0         0         0         0         0
         0         0         0         0         0         0         0         0
         0         0         0         0         0         0         0         0
         0         0         0         0         0         0         0         0
         0         0         0         0         0         0         0         0
         0         0         0         0         0         0         0         0
         0         0         0         0         0         0         0         0
         0         0         0         0         0         0         0         0
         0         0         0         0         0         0         0         0
         0         0         0         0         0         0         0         0
         0         0         0         0         0         0         0         0
         0         0         0         0         0         0         0         0
         0         0         0         0         0         0         0         0
         0         0         0         0         0         0         0         0
         0         0         0         0         0         0         0         0
         0         0         0         0         0         0         0         0
         0         0         0         0         0         0         0         0
         0         0         0         0         0         0         0         0
         0         0         0         0         0         0         0         0
         0         0         0         0         0         0         0         0
         0         0         0         0         0         0         0         0
         0         0         0         0         0         0         0         0
         0         0         0         0         0         0         0         0
         0         0         0         0         0         0         0         0
         0         0         0         0         0         0         0         0
         0         0         0         0         0         0         0         0
         0         0         0         0         0         0         0         0
         0         0         0         0         0         0         0         0
         0         0         0         0         0         0         0         0
         0         0         0         0         0         0         0         0
         0         0         0         0         0         0         0         0
         0         0         0         0         0         0         0         0
         0         0         0         0         0         0         0         0
         0         0         0         0         0         0         0         0
         0         0         0         0         0         0         0         0
         0         0         0         0         0         0         0         0
         0         0         0         0         0         0         0         0
         0         0         0         0         0         0         0         0
         0         0         0         0         0         0         0         0
         0         0         0         0         0         0         0         0
         0         0         0         0         0         0         0         0
         0         0         0         0         0         0         0         0
         0         0         0         0         0         0         0         0
         0         0         0         0         0         0         0         0
         0         0         0         0         0         0         0         0
         0         0         0         0         0         0         0         0
         0         0         0         0         0         0         0         0
         0         0         0         0         0         0         0         0
         0         0         0         0         0         0         0         0
         0         0         0         0         0         0         0         0
         0         0         0         0         0         0         0         0
         0         0         0         0         0         0         0         0
         0         0         0         0         0         0         0         0
         0         0         0         0         0         0         0         0
         0         0         0         0         0         0         0         0
         0         0         0         0         0         0         0         0
         0         0         0         0         0         0         0         0
      8578      8577      8579         0         1
      8581      8580      8582         0         1
      8584      8583      8585         0         1
      8587      8586      8588         0         1
      8590      8589      8591         0         1
      8593      8592      8594         0         1
      8596      8595      8597         0         1
      8599      8598      8600         0         1
      8602      8601      8603         0         1
      8605      8604      8606         0         1
      8608      8607      8609         0         1
      8611      8610      8612         0         1
      8614      8613      8615         0         1
      8617      8616      8618         0         1
      8620      8619      8621         0         1
      8623      8622      8624         0         1
      8626      8625      8627         0         1
      8629      8628      8630         0         1
      8632      8631      8633         0         1
      8635      8634      8636         0         1
      8638      8637      8639         0         1
      8641      8640      8642         0         1
      8644      8643      8645         0         1
      8647      8646      8648         0         1
      8650      8649      8651         0         1
      8653      8652      8654         0         1
      8656      8655      8657         0         1
      8659      8658      8660         0         1
      8662      8661      8663         0         1
      8665      8664      8666         0         1
      8668      8667      8669         0         1
      8671      8670      8672         0         1
      8674      8673      8675         0         1
      8677      8676      8678         0         1
      8680      8679      8681         0         1
      8683      8682      8684         0         1
      8686      8685      8687         0         1
      8689      8688      8690         0         1
      8692      8691      8693         0         1
      8695      8694      8696         0         1
      8698      8697      8699         0         1
      8701      8700      8702         0         1
      8704      8703      8705         0         1
      8707      8706      8708         0         1
      8710      8709      8711         0         1
      8713      8712      8714         0         1
      8716      8715      8717         0         1
      8719      8718      8720         0         1
      8722      8721      8723         0         1
      8725      8724      8726         0         1
      8728      8727      8729         0         1
      8731      8730      8732         0         1
      8734      8733      8735         0         1
      8737      8736      8738         0         1
      8740      8739      8741         0         1
      8743      8742      8744         0         1
      8746      8745      8747         0         1
      8749      8748      8750         0         1
      8752      8751      8753         0         1
      8755      8754      8756         0         1
      8758      8757      8759         0         1
      8761      8760      8762         0         1
      8764      8763      8765         0         1
      8767      8766      8768         0         1
      8770      8769      8771         0         1
      8773      8772      8774         0         1
      8776      8775      8777         0         1
      8779      8778      8780         0         1
      8782      8781      8783         0         1
      8785      8784      8786         0         1
      8788      8787      8789         0         1
      8791      8790      8792         0         1
      8794      8793      8795         0         1
      8797      8796      8798         0         1
      8800      8799      8801         0         1
      8803      8802      8804         0         1
      8806      8805      8807         0         1
      8809      8808      8810         0         1
      8812      8811      8813         0         1
      8815      8814      8816         0         1
      8818      8817      8819         0         1
      8821      8820      8822         0         1
      8824      8823      8825         0         1
      8827      8826      8828         0         1
      8830      8829      8831         0         1
      8833      8832      8834         0         1
      8836      8835      8837         0         1
      8839      8838      8840         0         1
      8842      8841      8843         0         1
      8845      8844      8846         0         1
      8848      8847      8849         0         1
      8851      8850      8852         0         1
      8854      8853      8855         0         1
      8857      8856      8858         0         1
      8860      8859      8861         0         1
      8863      8862      8864         0         1
      8866      8865      8867         0         1
      8869      8868      8870         0         1
      8872      8871      8873         0         1
      8875      8874      8876         0         1
      8878      8877      8879         0         1
      8881      8880      8882         0         1
      8884      8883      8885         0         1
      8887      8886      8888         0         1
      8890      8889      8891         0         1
      8893      8892      8894         0         1
      8896      8895      8897         0         1
      8899      8898      8900         0         1
      8902      8901      8903         0         1
      8905      8904      8906         0         1
      8908      8907      8909         0         1
      8911      8910      8912         0         1
      8914      8913      8915         0         1
      8917      8916      8918         0         1
      8920      8919      8921         0         1
      8923      8922      8924         0         1
      8926      8925      8927         0         1
      8929      8928      8930         0         1
      8932      8931      8933         0         1
      8935      8934      8936         0         1
      8938      8937      8939         0         1
      8941      8940      8942         0         1
      8944      8943      8945         0         1
      8947      8946      8948         0         1
      8950      8949      8951         0         1
      8953      8952      8954         0         1
      8956      8955      8957         0         1
      8959      8958      8960         0         1
      8962      8961      8963         0         1
      8965      8964      8966         0         1
      8968      8967      8969         0         1
      8971      8970      8972         0         1
      8974      8973      8975         0         1
      8977      8976      8978         0         1
      8980      8979      8981         0         1
      8983      8982      8984         0         1
      8986      8985      8987         0         1
      8989      8988      8990         0         1
      8992      8991      8993         0         1
      8995      8994      8996         0         1
      8998      8997      8999         0         1
      9001      9000      9002         0         1
      9004      9003      9005         0         1
      9007      9006      9008         0         1
      9010      9009      9011         0         1
      9013      9012      9014         0         1
      9016      9015      9017         0         1
      9019      9018      9020         0         1
      9022      9021      9023         0         1
      9025      9024      9026         0         1
      9028      9027      9029         0         1
      9031      9030      9032         0         1
      9034      9033      9035         0         1
      9037      9036      9038         0         1
      9040      9039      9041         0         1
      9043      9042      9044         0         1
      9046      9045      9047         0         1
      9049      9048      9050         0         1
      9052      9051      9053         0         1
      9055      9054      9056         0         1
      9058      9057      9059         0         1
      9061      9060      9062         0         1
      9064      9063      9065         0         1
      9067      9066      9068         0         1
      9070      9069      9071         0         1
      9073      9072      9074         0         1
      9076      9075      9077         0         1
      9079      9078      9080         0         1
      9082      9081      9083         0         1
      9085      9084      9086         0         1
      9088      9087      9089         0         1
      9091      9090      9092         0         1
      9094      9093      9095         0         1
      9097      9096      9098         0         1
      9100      9099      9101         0         1
      9103      9102      9104         0         1
      9106      9105      9107         0         1
      9109      9108      9110         0         1
      9112      9111      9113         0         1
      9115      9114      9116         0         1
      9118      9117      9119         0         1
      9121      9120      9122         0         1
      9124      9123      9125         0         1
      9127      9126      9128         0         1
      9130      9129      9131         0         1
      9133      9132      9134         0         1
      9136      9135      9137         0         1
      9139      9138      9140         0         1
      9142      9141      9143         0         1
      9145      9144      9146         0         1
      9148      9147      9149         0         1
      9151      9150      9152         0         1
      9154      9153      9155         0         1
      9157      9156      9158         0         1
      9160      9159      9161         0         1
      9163      9162      9164         0         1
      9166      9165      9167         0         1
      9169      9168      9170         0         1
      9172      9171      9173         0         1
      9175      9174      9176         0         1
      9178      9177      9179         0         1
      9181      9180      9182         0         1
      9184      9183      9185         0         1
      9187      9186      9188         0         1
      9190      9189      9191         0         1
      9193      9192      9194         0         1
      9196      9195      9197         0         1
      9199      9198      9200         0         1
      9202      9201      9203         0         1
      9205      9204      9206         0         1
      9208      9207      9209         0         1
      9211      9210      9212         0         1
      9214      9213      9215         0         1
      9217      9216      9218         0         1
      9220      9219      9221         0         1
      9223      9222      9224         0         1
      9226      9225      9227         0         1
      9229      9228      9230         0         1
      9232      9231      9233         0         1
      9235      9234      9236         0         1
      9238      9237      9239         0         1
      9241      9240      9242         0         1
      9244      9243      9245         0         1
      9247      9246      9248         0         1
      9250      9249      9251         0         1
      9253      9252      9254         0         1
      9256      9255      9257         0         1
      9259      9258      9260         0         1
      9262      9261      9263         0         1
      9265      9264      9266         0         1
      9268      9267      9269         0         1
      9271      9270      9272         0         1
      9274      9273      9275         0         1
      9277      9276      9278         0         1
      9280      9279      9281         0         1
      9283      9282      9284         0         1
      9286      9285      9287         0         1
      9289      9288      9290         0         1
      9292      9291      9293         0         1
      9295      9294      9296         0         1
      9298      9297      9299         0         1
      9301      9300      9302         0         1
      9304      9303      9305         0         1
      9307      9306      9308         0         1
      9310      9309      9311         0         1
      9313      9312      9314         0         1
      9316      9315      9317         0         1
      9319      9318      9320         0         1
      9322      9321      9323         0         1
      9325      9324      9326         0         1
      9328      9327      9329         0         1
      9331      9330      9332         0         1
      9334      9333      9335         0         1
      9337      9336      9338         0         1
      9340      9339      9341         0         1
      9343      9342      9344         0         1
      9346      9345      9347         0         1
      9349      9348      9350         0         1
      9352      9351      9353         0         1
      9355      9354      9356         0         1
      9358      9357      9359         0         1
      9361      9360      9362         0         1
      9364      9363      9365         0         1
      9367      9366      9368         0         1
      9370      9369      9371         0         1
      9373      9372      9374         0         1
      9376      9375      9377         0         1
      9379      9378      9380         0         1
      9382      9381      9383         0         1
      9385      9384      9386         0         1
      9388      9387      9389         0         1
      9391      9390      9392         0         1
      9394      9393      9395         0         1
      9397      9396      9398         0         1
      9400      9399      9401         0         1
      9403      9402      9404         0         1
      9406      9405      9407         0         1
      9409      9408      9410         0         1
      9412      9411      9413         0         1
      9415      9414      9416         0         1
      9418      9417      9419         0         1
      9421      9420      9422         0         1
      9424      9423      9425         0         1
      9427      9426      9428         0         1
      9430      9429      9431         0         1
      9433      9432      9434         0         1
      9436      9435      9437         0         1
      9439      9438      9440         0         1
      9442      9441      9443         0         1
      9445      9444      9446         0         1
      9448      9447      9449         0         1
      9451      9450      9452         0         1
      9454      9453      9455         0         1
      9457      9456      9458         0         1
      9460      9459      9461         0         1
      9463      9462      9464         0         1
      9466      9465      9467         0         1
      9469      9468      9470         0         1
      9472      9471      9473         0         1
      9475      9474      9476         0         1
      9478      9477      9479         0         1
      9481      9480      9482         0         1
      9484      9483      9485         0         1
      9487      9486      9488         0         1
      9490      9489      9491         0         1
      9493      9492      9494         0         1
      9496      9495      9497         0         1
      9499      9498      9500         0         1
      9502      9501      9503         0         1
      9505      9504      9506         0         1
      9508      9507      9509         0         1
      9511      9510      9512         0         1
      9514      9513      9515         0         1
      9517      9516      9518         0         1
      9520      9519      9521         0         1
      9523      9522      9524         0         1
      9526      9525      9527         0         1
      9529      9528      9530         0         1
      9532      9531      9533         0         1
      9535      9534      9536         0         1
      9538      9537      9539         0         1
      9541      9540      9542         0         1
      9544      9543      9545         0         1
      9547      9546      9548         0         1
      9550      9549      9551         0         1
      9553      9552      9554         0         1
      9556      9555      9557         0         1
      9559      9558      9560         0         1
      9562      9561      9563         0         1
      9565      9564      9566         0         1
      9568      9567      9569         0         1
      9571      9570      9572         0         1
      9574      9573      9575         0         1
      9577      9576      9578         0         1
      9580      9579      9581         0         1
      9583      9582      9584         0         1
      9586      9585      9587         0         1
      9589      9588      9590         0         1
      9592      9591      9593         0         1
      9595      9594      9596         0         1
      9598      9597      9599         0         1
      9601      9600      9602         0         1
      9604      9603      9605         0         1
      9607      9606      9608         0         1
      9610      9609      9611         0         1
      9613      9612      9614         0         1
      9616      9615      9617         0         1
      9619      9618      9620         0         1
      9622      9621      9623         0         1
      9625      9624      9626         0         1
      9628      9627      9629         0         1
      9631      9630      9632         0         1
      9634      9633      9635         0         1
      9637      9636      9638         0         1
      9640      9639      9641         0         1
      9643      9642      9644         0         1
      9646      9645      9647         0         1
      9649      9648      9650         0         1
      9652      9651      9653         0         1
      9655      9654      9656         0         1
      9658      9657      9659         0         1
      9661      9660      9662         0         1
      9664      9663      9665         0         1
      9667      9666      9668         0         1
      9670      9669      9671         0         1
      9673      9672      9674         0         1
      9676      9675      9677         0         1
      9679      9678      9680         0         1
      9682      9681      9683         0         1
      9685      9684      9686         0         1
      9688      9687      9689         0         1
      9691      9690      9692         0         1
      9694      9693      9695         0         1
      9697      9696      9698         0         1
      9700      9699      9701         0         1
      9703      9702      9704         0         1
      9706      9705      9707         0         1
      9709      9708      9710         0         1
      9712      9711      9713         0         1
      9715      9714      9716         0         1
      9718      9717      9719         0         1
      9721      9720      9722         0         1
      9724      9723      9725         0         1
      9727      9726      9728         0         1
      9730      9729      9731         0         1
      9733      9732      9734         0         1
      9736      9735      9737         0         1
      9739      9738      9740         0         1
      9742      9741      9743         0         1
      9745      9744      9746         0         1
      9748      9747      9749         0         1
      9751      9750      9752         0         1
      9754      9753      9755         0         1
      9757      9756      9758         0         1
      9760      9759      9761         0         1
      9763      9762      9764         0         1
      9766      9765      9767         0         1
      9769      9768      9770         0         1
      9772      9771      9773         0         1
      9775      9774      9776         0         1
      9778      9777      9779         0         1
      9781      9780      9782         0         1
      9784      9783      9785         0         1
      9787      9786      9788         0         1
      9790      9789      9791         0         1
      9793      9792      9794         0         1
      9796      9795      9797         0         1
      9799      9798      9800         0         1
      9802      9801      9803         0         1
      9805      9804      9806         0         1
      9808      9807      9809         0         1
      9811      9810      9812         0         1
      9814      9813      9815         0         1
      9817      9816      9818         0         1
      9820      9819      9821         0         1
      9823      9822      9824         0         1
      9826      9825      9827         0         1
      9829      9828      9830         0         1
      9832      9831      9833         0         1
      9835      9834      9836         0         1
      9838      9837      9839         0         1
      9841      9840      9842         0         1
      9844      9843      9845         0         1
      9847      9846      9848         0         1
      9850      9849      9851         0         1
      9853      9852      9854         0         1
      9856      9855      9857         0         1
      9859      9858      9860         0         1
      9862      9861      9863         0         1
      9865      9864      9866         0         1
      9868      9867      9869         0         1
      9871      9870      9872         0         1
      9874      9873      9875         0         1
      9877      9876      9878         0         1
      9880      9879      9881         0         1
      9883      9882      9884         0         1
      9886      9885      9887         0         1
      9889      9888      9890         0         1
      9892      9891      9893         0         1
      9895      9894      9896         0         1
      9898      9897      9899         0         1
      9901      9900      9902         0         1
      9904      9903      9905         0         1
      9907      9906      9908         0         1
      9910      9909      9911         0         1
      9913      9912      9914         0         1
      9916      9915      9917         0         1
      9919      9918      9920         0         1
      9922      9921      9923         0         1
      9925      9924      9926         0         1
      9928      9927      9929         0         1
      9931      9930      9932         0         1
      9934      9933      9935         0         1
      9937      9936      9938         0         1
      9940      9939      9941         0         1
      9943      9942      9944         0         1
      9946      9945      9947         0         1
      9949      9948      9950         0         1
      9952      9951      9953         0         1
      9955      9954      9956         0         1
      9958      9957      9959         0         1
      9961      9960      9962         0         1
      9964      9963      9965         0         1
      9967      9966      9968         0         1
      9970      9969      9971         0         1
      9973      9972      9974         0         1
      9976      9975      9977         0         1
      9979      9978      9980         0         1
      9982      9981      9983         0         1
      9985      9984      9986         0         1
      9988      9987      9989         0         1
      9991      9990      9992         0         1
      9994      9993      9995         0         1
      9997      9996      9998         0         1
     10000      9999     10001         0         1
     10003     10002     10004         0         1
     10006     10005     10007         0         1
     10009     10008     10010         0         1
     10012     10011     10013         0         1
     10015     10014     10016         0         1
     10018     10017     10019         0         1
     10021     10020     10022         0         1
     10024     10023     10025         0         1
     10027     10026     10028         0         1
     10030     10029     10031         0         1
     10033     10032     10034         0         1
     10036     10035     10037         0         1
     10039     10038     10040         0         1
     10042     10041     10043         0         1
     10045     10044     10046         0         1
     10048     10047     10049         0         1
     10051     10050     10052         0         1
     10054     10053     10055         0         1
     10057     10056     10058         0         1
     10060     10059     10061         0         1
     10063     10062     10064         0         1
     10066     10065     10067         0         1
     10069     10068     10070         0         1
     10072     10071     10073         0         1
     10075     10074     10076         0         1
     10078     10077     10079         0         1
     10081     10080     10082         0         1
     10084     10083     10085         0         1
     10087     10086     10088         0         1
     10090     10089     10091         0         1
     10093     10092     10094         0         1
     10096     10095     10097         0         1
     10099     10098     10100         0         1
     10102     10101     10103         0         1
     10105     10104     10106         0         1
     10108     10107     10109         0         1
     10111     10110     10112         0         1
     10114     10113     10115         0         1
     10117     10116     10118         0         1
     10120     10119     10121         0         1
     10123     10122     10124         0         1
     10126     10125     10127         0         1
     10129     10128     10130         0         1
     10132     10131     10133         0         1
     10135     10134     10136         0         1
     10138     10137     10139         0         1
     10141     10140     10142         0         1
     10144     10143     10145         0         1
     10147     10146     10148         0         1
     10150     10149     10151         0         1
     10153     10152     10154         0         1
     10156     10155     10157         0         1
     10159     10158     10160         0         1
     10162     10161     10163         0         1
     10165     10164     10166         0         1
     10168     10167     10169         0         1
     10171     10170     10172         0         1
     10174     10173     10175         0         1
     10177     10176     10178         0         1
     10180     10179     10181         0         1
     10183     10182     10184         0         1
     10186     10185     10187         0         1
     10189     10188     10190         0         1
     10192     10191     10193         0         1
     10195     10194     10196         0         1
     10198     10197     10199         0         1
     10201     10200     10202         0         1
     10204     10203     10205         0         1
     10207     10206     10208         0         1
     10210     10209     10211         0         1
     10213     10212     10214         0         1
     10216     10215     10217         0         1
     10219     10218     10220         0         1
     10222     10221     10223         0         1
     10225     10224     10226         0         1
     10228     10227     10229         0         1
     10231     10230     10232         0         1
     10234     10233     10235         0         1
     10237     10236     10238         0         1
     10240     10239     10241         0         1
     10243     10242     10244         0         1
     10246     10245     10247         0         1
     10249     10248     10250         0         1
     10252     10251     10253         0         1
     10255     10254     10256         0         1
     10258     10257     10259         0         1
     10261     10260     10262         0         1
     10264     10263     10265         0         1
     10267     10266     10268         0         1
     10270     10269     10271         0         1
     10273     10272     10274         0         1
     10276     10275     10277         0         1
     10279     10278     10280         0         1
     10282     10281     10283         0         1
     10285     10284     10286         0         1
     10288     10287     10289         0         1
     10291     10290     10292         0         1
     10294     10293     10295         0         1
     10297     10296     10298         0         1
     10300     10299     10301         0         1
     10303     10302     10304         0         1
     10306     10305     10307         0         1
     10309     10308     10310         0         1
     10312     10311     10313         0         1
     10315     10314     10316         0         1
     10318     10317     10319         0         1
     10321     10320     10322         0         1
     10324     10323     10325         0         1
     10327     10326     10328         0         1
     10330     10329     10331         0         1
     10333     10332     10334         0         1
     10336     10335     10337         0         1
     10339     10338     10340         0         1
     10342     10341     10343         0         1
     10345     10344     10346         0         1
     10348     10347     10349         0         1
     10351     10350     10352         0         1
     10354     10353     10355         0         1
     10357     10356     10358         0         1
     10360     10359     10361         0         1
     10363     10362     10364         0         1
     10366     10365     10367         0         1
     10369     10368     10370         0         1
     10372     10371     10373         0         1
     10375     10374     10376         0         1
     10378     10377     10379         0         1
     10381     10380     10382         0         1
     10384     10383     10385         0         1
     10387     10386     10388         0         1
     10390     10389     10391         0         1
     10393     10392     10394         0         1
     10396     10395     10397         0         1
     10399     10398     10400         0         1
     10402     10401     10403         0         1
     10405     10404     10406         0         1
     10408     10407     10409         0         1
     10411     10410     10412         0         1
     10414     10413     10415         0         1
     10417     10416     10418         0         1
     10420     10419     10421         0         1
     10423     10422     10424         0         1
     10426     10425     10427         0         1
     10429     10428     10430         0         1
     10432     10431     10433         0         1
     10435     10434     10436         0         1
     10438     10437     10439         0         1
     10441     10440     10442         0         1
     10444     10443     10445         0         1
     10447     10446     10448         0         1
     10450     10449     10451         0         1
     10453     10452     10454         0         1
     10456     10455     10457         0         1
     10459     10458     10460         0         1
     10462     10461     10463         0         1
     10465     10464     10466         0         1
     10468     10467     10469         0         1
     10471     10470     10472         0         1
     10474     10473     10475         0         1
     10477     10476     10478         0         1
     10480     10479     10481         0         1
     10483     10482     10484         0         1
     10486     10485     10487         0         1
     10489     10488     10490         0         1
     10492     10491     10493         0         1
     10495     10494     10496         0         1
     10498     10497     10499         0         1
     10501     10500     10502         0         1
     10504     10503     10505         0         1
     10507     10506     10508         0         1
     10510     10509     10511         0         1
     10513     10512     10514         0         1
     10516     10515     10517         0         1
     10519     10518     10520         0         1
     10522     10521     10523         0         1
     10525     10524     10526         0         1
     10528     10527     10529         0         1
     10531     10530     10532         0         1
     10534     10533     10535         0         1
     10537     10536     10538         0         1
     10540     10539     10541         0         1
     10543     10542     10544         0         1
     10546     10545     10547         0         1
     10549     10548     10550         0         1
     10552     10551     10553         0         1
     10555     10554     10556         0         1
     10558     10557     10559         0         1
     10561     10560     10562         0         1
     10564     10563     10565         0         1
     10567     10566     10568         0         1
     10570     10569     10571         0         1
     10573     10572     10574         0         1
     10576     10575     10577         0         1
     10579     10578     10580         0         1
     10582     10581     10583         0         1
     10585     10584     10586         0         1
     10588     10587     10589         0         1
     10591     10590     10592         0         1
     10594     10593     10595         0         1
     10597     10596     10598         0         1
     10600     10599     10601         0         1
     10603     10602     10604         0         1
     10606     10605     10607         0         1
     10609     10608     10610         0         1
     10612     10611     10613         0         1
     10615     10614     10616         0         1
     10618     10617     10619         0         1
     10621     10620     10622         0         1
     10624     10623     10625         0         1
     10627     10626     10628         0         1
     10630     10629     10631         0         1
     10633     10632     10634         0         1
     10636     10635     10637         0         1
     10639     10638     10640         0         1
     10642     10641     10643         0         1
     10645     10644     10646         0         1
     10648     10647     10649         0         1
     10651     10650     10652         0         1
     10654     10653     10655         0         1
     10657     10656     10658         0         1
     10660     10659     10661         0         1
     10663     10662     10664         0         1
     10666     10665     10667         0         1
     10669     10668     10670         0         1
     10672     10671     10673         0         1
     10675     10674     10676         0         1
     10678     10677     10679         0         1
     10681     10680     10682         0         1
     10684     10683     10685         0         1
     10687     10686     10688         0         1
     10690     10689     10691         0         1
     10693     10692     10694         0         1
     10696     10695     10697         0         1
     10699     10698     10700         0         1
     10702     10701     10703         0         1
     10705     10704     10706         0         1
     10708     10707     10709         0         1
     10711     10710     10712         0         1
     10714     10713     10715         0         1
     10717     10716     10718         0         1
     10720     10719     10721         0         1
     10723     10722     10724         0         1
     10726     10725     10727         0         1
     10729     10728     10730         0         1
     10732     10731     10733         0         1
     10735     10734     10736         0         1
     10738     10737     10739         0         1
     10741     10740     10742         0         1
     10744     10743     10745         0         1
     10747     10746     10748         0         1
     10750     10749     10751         0         1
     10753     10752     10754         0         1
     10756     10755     10757         0         1
     10759     10758     10760         0         1
     10762     10761     10763         0         1
     10765     10764     10766         0         1
     10768     10767     10769         0         1
     10771     10770     10772         0         1
     10774     10773     10775         0         1
     10777     10776     10778         0         1
     10780     10779     10781         0         1
     10783     10782     10784         0         1
     10786     10785     10787         0         1
     10789     10788     10790         0         1
     10792     10791     10793         0         1
     10795     10794     10796         0         1
     10798     10797     10799         0         1
     10801     10800     10802         0         1
     10804     10803     10805         0         1
     10807     10806     10808         0         1
     10810     10809     10811         0         1
     10813     10812     10814         0         1
     10816     10815     10817         0         1
     10819     10818     10820         0         1
     10822     10821     10823         0         1
     10825     10824     10826         0         1
     10828     10827     10829         0         1
     10831     10830     10832         0         1
     10834     10833     10835         0         1
     10837     10836     10838         0         1
     10840     10839     10841         0         1
     10843     10842     10844         0         1
     10846     10845     10847         0         1
     10849     10848     10850         0         1
     10852     10851     10853         0         1
     10855     10854     10856         0         1
     10858     10857     10859         0         1
     10861     10860     10862         0         1
     10864     10863     10865         0         1
     10867     10866     10868         0         1
     10870     10869     10871         0         1
     10873     10872     10874         0         1
     10876     10875     10877         0         1
     10879     10878     10880         0         1
     10882     10881     10883         0         1
     10885     10884     10886         0         1
     10888     10887     10889         0         1
     10891     10890     10892         0         1
     10894     10893     10895         0         1
     10897     10896     10898         0         1
     10900     10899     10901         0         1
     10903     10902     10904         0         1
     10906     10905     10907         0         1
     10909     10908     10910         0         1
     10912     10911     10913         0         1
     10915     10914     10916         0         1
     10918     10917     10919         0         1
     10921     10920     10922         0         1
     10924     10923     10925         0         1
     10927     10926     10928         0         1
     10930     10929     10931         0         1
     10933     10932     10934         0         1
     10936     10935     10937         0         1
     10939     10938     10940         0         1
     10942     10941     10943         0         1
     10945     10944     10946         0         1
     10948     10947     10949         0         1
     10951     10950     10952         0         1
     10954     10953     10955         0         1
     10957     10956     10958         0         1
     10960     10959     10961         0         1
     10963     10962     10964         0         1
     10966     10965     10967         0         1
     10969     10968     10970         0         1
     10972     10971     10973         0         1
     10975     10974     10976         0         1
     10978     10977     10979         0         1
     10981     10980     10982         0         1
     10984     10983     10985         0         1
     10987     10986     10988         0         1
     10990     10989     10991         0         1
     10993     10992     10994         0         1
     10996     10995     10997         0         1
     10999     10998     11000         0         1
     11002     11001     11003         0         1
     11005     11004     11006         0         1
     11008     11007     11009         0         1
     11011     11010     11012         0         1
     11014     11013     11015         0         1
     11017     11016     11018         0         1
     11020     11019     11021         0         1
     11023     11022     11024         0         1
     11026     11025     11027         0         1
     11029     11028     11030         0         1
     11032     11031     11033         0         1
     11035     11034     11036         0         1
     11038     11037     11039         0         1
     11041     11040     11042         0         1
     11044     11043     11045         0         1
     11047     11046     11048         0         1
     11050     11049     11051         0         1
     11053     11052     11054         0         1
     11056     11055     11057         0         1
     11059     11058     11060         0         1
     11062     11061     11063         0         1
     11065     11064     11066         0         1
     11068     11067     11069         0         1
     11071     11070     11072         0         1
     11074     11073     11075         0         1
     11077     11076     11078         0         1
     11080     11079     11081         0         1
     11083     11082     11084         0         1
     11086     11085     11087         0         1
     11089     11088     11090         0         1
     11092     11091     11093         0         1
     11095     11094     11096         0         1
     11098     11097     11099         0         1
     11101     11100     11102         0         1
     11104     11103     11105         0         1
     11107     11106     11108         0         1
     11110     11109     11111         0         1
     11113     11112     11114         0         1
     11116     11115     11117         0         1
     11119     11118     11120         0         1
     11122     11121     11123         0         1
     11125     11124     11126         0         1
     11128     11127     11129         0         1
     11131     11130     11132         0         1
     11134     11133     11135         0         1
     11137     11136     11138         0         1
     11140     11139     11141         0         1
     11143     11142     11144         0         1
     11146     11145     11147         0         1
     11149     11148     11150         0         1
     11152     11151     11153         0         1
     11155     11154     11156         0         1
     11158     11157     11159         0         1
     11161     11160     11162         0         1
     11164     11163     11165         0         1
     11167     11166     11168         0         1
     11170     11169     11171         0         1
     11173     11172     11174         0         1
     11176     11175     11177         0         1
     11179     11178     11180         0         1
     11182     11181     11183         0         1
     11185     11184     11186         0         1
     11188     11187     11189         0         1
     11191     11190     11192         0         1
     11194     11193     11195         0         1
     11197     11196     11198         0         1
     11200     11199     11201         0         1
     11203     11202     11204         0         1
     11206     11205     11207         0         1
     11209     11208     11210         0         1
     11212     11211     11213         0         1
     11215     11214     11216         0         1
     11218     11217     11219         0         1
     11221     11220     11222         0         1
     11224     11223     11225         0         1
     11227     11226     11228         0         1
     11230     11229     11231         0         1
     11233     11232     11234         0         1
     11236     11235     11237         0         1
     11239     11238     11240         0         1
     11242     11241     11243         0         1
     11245     11244     11246         0         1
     11248     11247     11249         0         1
     11251     11250     11252         0         1
     11254     11253     11255         0         1
     11257     11256     11258         0         1
     11260     11259     11261         0         1
     11263     11262     11264         0         1
     11266     11265     11267         0         1
     11269     11268     11270         0         1
     11272     11271     11273         0         1
     11275     11274     11276         0         1
     11278     11277     11279         0         1
     11281     11280     11282         0         1
     11284     11283     11285         0         1
     11287     11286     11288         0         1
     11290     11289     11291         0         1
     11293     11292     11294         0         1
     11296     11295     11297         0         1
     11299     11298     11300         0         1
     11302     11301     11303         0         1
     11305     11304     11306         0         1
     11308     11307     11309         0         1
     11311     11310     11312         0         1
     11314     11313     11315         0         1
     11317     11316     11318         0         1
     11320     11319     11321         0         1
     11323     11322     11324         0         1
     11326     11325     11327         0         1
     11329     11328     11330         0         1
     11332     11331     11333         0         1
     11335     11334     11336         0         1
     11338     11337     11339         0         1
     11341     11340     11342         0         1
     11344     11343     11345         0         1
     11347     11346     11348         0         1
     11350     11349     11351         0         1
     11353     11352     11354         0         1
     11356     11355     11357         0         1
     11359     11358     11360         0         1
     11362     11361     11363         0         1
     11365     11364     11366         0         1
     11368     11367     11369         0         1
     11371     11370     11372         0         1
     11374     11373     11375         0         1
     11377     11376     11378         0         1
     11380     11379     11381         0         1
     11383     11382     11384         0         1
     11386     11385     11387         0         1
     11389     11388     11390         0         1
     11392     11391     11393         0         1
     11395     11394     11396         0         1
     11398     11397     11399         0         1
     11401     11400     11402         0         1
     11404     11403     11405         0         1
     11407     11406     11408         0         1
     11410     11409     11411         0         1
     11413     11412     11414         0         1
     11416     11415     11417         0         1
     11419     11418     11420         0         1
     11422     11421     11423         0         1
     11425     11424     11426         0         1
     11428     11427     11429         0         1
     11431     11430     11432         0         1
     11434     11433     11435         0         1
     11437     11436     11438         0         1
     11440     11439     11441         0         1
     11443     11442     11444         0         1
     11446     11445     11447         0         1
     11449     11448     11450         0         1
     11452     11451     11453         0         1
     11455     11454     11456         0         1
     11458     11457     11459         0         1
     11461     11460     11462         0         1
     11464     11463     11465         0         1
     11467     11466     11468         0         1
     11470     11469     11471         0         1
     11473     11472     11474         0         1
     11476     11475     11477         0         1
     11479     11478     11480         0         1
     11482     11481     11483         0         1
     11485     11484     11486         0         1
     11488     11487     11489         0         1
     11491     11490     11492         0         1
     11494     11493     11495         0         1
     11497     11496     11498         0         1
     11500     11499     11501         0         1
     11503     11502     11504         0         1
     11506     11505     11507         0         1
     11509     11508     11510         0         1
     11512     11511     11513         0         1
     11515     11514     11516         0         1
     11518     11517     11519         0         1
     11521     11520     11522         0         1
     11524     11523     11525         0         1
     11527     11526     11528         0         1
     11530     11529     11531         0         1
     11533     11532     11534         0         1
     11536     11535     11537         0         1
     11539     11538     11540         0         1
     11542     11541     11543         0         1
     11545     11544     11546         0         1
     11548     11547     11549         0         1
     11551     11550     11552         0         1
     11554     11553     11555         0         1
     11557     11556     11558         0         1
     11560     11559     11561         0         1
     11563     11562     11564         0         1
     11566     11565     11567         0         1
     11569     11568     11570         0         1
     11572     11571     11573         0         1
     11575     11574     11576         0         1
     11578     11577     11579         0         1
     11581     11580     11582         0         1
     11584     11583     11585         0         1
     11587     11586     11588         0         1
     11590     11589     11591         0         1
     11593     11592     11594         0         1
     11596     11595     11597         0         1
     11599     11598     11600         0         1
     11602     11601     11603         0         1
     11605     11604     11606         0         1
     11608     11607     11609         0         1
     11611     11610     11612         0         1
     11614     11613     11615         0         1
     11617     11616     11618         0         1
     11620     11619     11621         0         1
     11623     11622     11624         0         1
     11626     11625     11627         0         1
     11629     11628     11630         0         1
     11632     11631     11633         0         1
     11635     11634     11636         0         1
     11638     11637     11639         0         1
     11641     11640     11642         0         1
     11644     11643     11645         0         1
     11647     11646     11648         0         1
     11650     11649     11651         0         1
     11653     11652     11654         0         1
     11656     11655     11657         0         1
     11659     11658     11660         0         1
     11662     11661     11663         0         1
     11665     11664     11666         0         1
     11668     11667     11669         0         1
     11671     11670     11672         0         1
     11674     11673     11675         0         1
     11677     11676     11678         0         1
     11680     11679     11681         0         1
     11683     11682     11684         0         1
     11686     11685     11687         0         1
     11689     11688     11690         0         1
     11692     11691     11693         0         1
     11695     11694     11696         0         1
     11698     11697     11699         0         1
     11701     11700     11702         0         1
     11704     11703     11705         0         1
     11707     11706     11708         0         1
     11710     11709     11711         0         1
     11713     11712     11714         0         1
     11716     11715     11717         0         1
     11719     11718     11720         0         1
     11722     11721     11723         0         1
     11725     11724     11726         0         1
     11728     11727     11729         0         1
     11731     11730     11732         0         1
     11734     11733     11735         0         1
     11737     11736     11738         0         1
     11740     11739     11741         0         1
     11743     11742     11744         0         1
     11746     11745     11747         0         1
     11749     11748     11750         0         1
     11752     11751     11753         0         1
     11755     11754     11756         0         1
     11758     11757     11759         0         1
     11761     11760     11762         0         1
     11764     11763     11765         0         1
     11767     11766     11768         0         1
     11770     11769     11771         0         1
     11773     11772     11774         0         1
     11776     11775     11777         0         1
     11779     11778     11780         0         1
     11782     11781     11783         0         1
     11785     11784     11786         0         1
     11788     11787     11789         0         1
     11791     11790     11792         0         1
     11794     11793     11795         0         1
     11797     11796     11798         0         1
     11800     11799     11801         0         1
     11803     11802     11804         0         1
     11806     11805     11807         0         1
     11809     11808     11810         0         1
     11812     11811     11813         0         1
     11815     11814     11816         0         1
     11818     11817     11819         0         1
     11821     11820     11822         0         1
     11824     11823     11825         0         1
     11827     11826     11828         0         1
     11830     11829     11831         0         1
     11833     11832     11834         0         1
     11836     11835     11837         0         1
     11839     11838     11840         0         1
     11842     11841     11843         0         1
     11845     11844     11846         0         1
     11848     11847     11849         0         1
     11851     11850     11852         0         1
     11854     11853     11855         0         1
     11857     11856     11858         0         1
     11860     11859     11861         0         1
     11863     11862     11864         0         1
     11866     11865     11867         0         1
     11869     11868     11870         0         1
     11872     11871     11873         0         1
     11875     11874     11876         0         1
     11878     11877     11879         0         1
     11881     11880     11882         0         1
     11884     11883     11885         0         1
     11887     11886     11888         0         1
     11890     11889     11891         0         1
     11893     11892     11894         0         1
     11896     11895     11897         0         1
     11899     11898     11900         0         1
     11902     11901     11903         0         1
     11905     11904     11906         0         1
     11908     11907     11909         0         1
     11911     11910     11912         0         1
     11914     11913     11915         0         1
     11917     11916     11918         0         1
     11920     11919     11921         0         1
     11923     11922     11924         0         1
     11926     11925     11927         0         1
     11929     11928     11930         0         1
     11932     11931     11933         0         1
     11935     11934     11936         0         1
     11938     11937     11939         0         1
     11941     11940     11942         0         1
     11944     11943     11945         0         1
     11947     11946     11948         0         1
     11950     11949     11951         0         1
     11953     11952     11954         0         1
     11956     11955     11957         0         1
     11959     11958     11960         0         1
     11962     11961     11963         0         1
     11965     11964     11966         0         1
     11968     11967     11969         0         1
     11971     11970     11972         0         1
     11974     11973     11975         0         1
     11977     11976     11978         0         1
     11980     11979     11981         0         1
     11983     11982     11984         0         1
     11986     11985     11987         0         1
     11989     11988     11990         0         1
     11992     11991     11993         0         1
     11995     11994     11996         0         1
     11998     11997     11999         0         1
     12001     12000     12002         0         1
     12004     12003     12005         0         1
     12007     12006     12008         0         1
     12010     12009     12011         0         1
     12013     12012     12014         0         1
     12016     12015     12017         0         1
     12019     12018     12020         0         1
     12022     12021     12023         0         1
     12025     12024     12026         0         1
     12028     12027     12029         0         1
     12031     12030     12032         0         1
     12034     12033     12035         0         1
     12037     12036     12038         0         1
     12040     12039     12041         0         1
     12043     12042     12044         0         1
     12046     12045     12047         0         1
     12049     12048     12050         0         1
     12052     12051     12053         0         1
     12055     12054     12056         0         1
     12058     12057     12059         0         1
     12061     12060     12062         0         1
     12064     12063     12065         0         1
     12067     12066     12068         0         1
     12070     12069     12071         0         1
     12073     12072     12074         0         1
     12076     12075     12077         0         1
     12079     12078     12080         0         1
     12082     12081     12083         0         1
     12085     12084     12086         0         1
     12088     12087     12089         0         1
     12091     12090     12092         0         1
     12094     12093     12095         0         1
     12097     12096     12098         0         1
     12100     12099     12101         0         1
     12103     12102     12104         0         1
     12106     12105     12107         0         1
     12109     12108     12110         0         1
     12112     12111     12113         0         1
     12115     12114     12116         0         1
     12118     12117     12119         0         1
     12121     12120     12122         0         1
     12124     12123     12125         0         1
     12127     12126     12128         0         1
     12130     12129     12131         0         1
     12133     12132     12134         0         1
     12136     12135     12137         0         1
     12139     12138     12140         0         1
     12142     12141     12143         0         1
     12145     12144     12146         0         1
     12148     12147     12149         0         1
     12151     12150     12152         0         1
     12154     12153     12155         0         1
     12157     12156     12158         0         1
     12160     12159     12161         0         1
     12163     12162     12164         0         1
     12166     12165     12167         0         1
     12169     12168     12170         0         1
     12172     12171     12173         0         1
     12175     12174     12176         0         1
     12178     12177     12179         0         1
     12181     12180     12182         0         1
     12184     12183     12185         0         1
     12187     12186     12188         0         1
     12190     12189     12191         0         1
     12193     12192     12194         0         1
     12196     12195     12197         0         1
     12199     12198     12200         0         1
     12202     12201     12203         0         1
     12205     12204     12206         0         1
     12208     12207     12209         0         1
     12211     12210     12212         0         1
     12214     12213     12215         0         1
     12217     12216     12218         0         1
     12220     12219     12221         0         1
     12223     12222     12224         0         1
     12226     12225     12227         0         1
     12229     12228     12230         0         1
     12232     12231     12233         0         1
     12235     12234     12236         0         1
     12238     12237     12239         0         1
     12241     12240     12242         0         1
     12244     12243     12245         0         1
     12247     12246     12248         0         1
     12250     12249     12251         0         1
     12253     12252     12254         0         1
     12256     12255     12257         0         1
     12259     12258     12260         0         1
     12262     12261     12263         0         1
     12265     12264     12266         0         1
     12268     12267     12269         0         1
     12271     12270     12272         0         1
     12274     12273     12275         0         1
     12277     12276     12278         0         1
     12280     12279     12281         0         1
     12283     12282     12284         0         1
     12286     12285     12287         0         1
     12289     12288     12290         0         1
     12292     12291     12293         0         1
     12295     12294     12296         0         1
     12298     12297     12299         0         1
     12301     12300     12302         0         1
     12304     12303     12305         0         1
     12307     12306     12308         0         1
     12310     12309     12311         0         1
     12313     12312     12314         0         1
     12316     12315     12317         0         1
     12319     12318     12320         0         1
     12322     12321     12323         0         1
     12325     12324     12326         0         1
     12328     12327     12329         0         1
     12331     12330     12332         0         1
     12334     12333     12335         0         1
     12337     12336     12338         0         1
     12340     12339     12341         0         1
     12343     12342     12344         0         1
     12346     12345     12347         0         1
     12349     12348     12350         0         1
     12352     12351     12353         0         1
     12355     12354     12356         0         1
     12358     12357     12359         0         1
     12361     12360     12362         0         1
     12364     12363     12365         0         1
     12367     12366     12368         0         1
     12370     12369     12371         0         1
     12373     12372     12374         0         1
     12376     12375     12377         0         1
     12379     12378     12380         0         1
     12382     12381     12383         0         1
     12385     12384     12386         0         1
     12388     12387     12389         0         1
     12391     12390     12392         0         1
     12394     12393     12395         0         1
     12397     12396     12398         0         1
     12400     12399     12401         0         1
     12403     12402     12404         0         1
     12406     12405     12407         0         1
     12409     12408     12410         0         1
     12412     12411     12413         0         1
     12415     12414     12416         0         1
     12418     12417     12419         0         1
     12421     12420     12422         0         1
     12424     12423     12425         0         1
     12427     12426     12428         0         1
     12430     12429     12431         0         1
     12433     12432     12434         0         1
     12436     12435     12437         0         1
     12439     12438     12440         0         1
     12442     12441     12443         0         1
     12445     12444     12446         0         1
     12448     12447     12449         0         1
     12451     12450     12452         0         1
     12454     12453     12455         0         1
     12457     12456     12458         0         1
     12460     12459     12461         0         1
     12463     12462     12464         0         1
     12466     12465     12467         0         1
     12469     12468     12470         0         1
     12472     12471     12473         0         1
     12475     12474     12476         0         1
     12478     12477     12479         0         1
     12481     12480     12482         0         1
     12484     12483     12485         0         1
     12487     12486     12488         0         1
     12490     12489     12491         0         1
     12493     12492     12494         0         1
     12496     12495     12497         0         1
     12499     12498     12500         0         1
     12502     12501     12503         0         1
     12505     12504     12506         0         1
     12508     12507     12509         0         1
     12511     12510     12512         0         1
     12514     12513     12515         0         1
     12517     12516     12518         0         1
     12520     12519     12521         0         1
     12523     12522     12524         0         1
     12526     12525     12527         0         1
     12529     12528     12530         0         1
     12532     12531     12533         0         1
     12535     12534     12536         0         1
     12538     12537     12539         0         1
     12541     12540     12542         0         1
     12544     12543     12545         0         1
     12547     12546     12548         0         1
     12550     12549     12551         0         1
     12553     12552     12554         0         1
     12556     12555     12557         0         1
     12559     12558     12560         0         1
     12562     12561     12563         0         1
     12565     12564     12566         0         1
     12568     12567     12569         0         1
     12571     12570     12572         0         1
     12574     12573     12575         0         1
     12577     12576     12578         0         1
     12580     12579     12581         0         1
     12583     12582     12584         0         1
     12586     12585     12587         0         1
     12589     12588     12590         0         1
     12592     12591     12593         0         1
     12595     12594     12596         0         1
     12598     12597     12599         0         1
     12601     12600     12602         0         1
     12604     12603     12605         0         1
     12607     12606     12608         0         1
     12610     12609     12611         0         1
     12613     12612     12614         0         1
     12616     12615     12617         0         1
     12619     12618     12620         0         1
     12622     12621     12623         0         1
     12625     12624     12626         0         1
     12628     12627     12629         0         1
     12631     12630     12632         0         1
     12634     12633     12635         0         1
     12637     12636     12638         0         1
     12640     12639     12641         0         1
     12643     12642     12644         0         1
     12646     12645     12647         0         1
     12649     12648     12650         0         1
     12652     12651     12653         0         1
     12655     12654     12656         0         1
     12658     12657     12659         0         1
     12661     12660     12662         0         1
     12664     12663     12665         0         1
     12667     12666     12668         0         1
     12670     12669     12671         0         1
     12673     12672     12674         0         1
     12676     12675     12677         0         1
     12679     12678     12680         0         1
     12682     12681     12683         0         1
     12685     12684     12686         0         1
     12688     12687     12689         0         1
     12691     12690     12692         0         1
     12694     12693     12695         0         1
     12697     12696     12698         0         1
     12700     12699     12701         0         1
     12703     12702     12704         0         1
     12706     12705     12707         0         1
     12709     12708     12710         0         1
     12712     12711     12713         0         1
     12715     12714     12716         0         1
     12718     12717     12719         0         1
     12721     12720     12722         0         1
     12724     12723     12725         0         1
     12727     12726     12728         0         1
     12730     12729     12731         0         1
     12733     12732     12734         0         1
     12736     12735     12737         0         1
     12739     12738     12740         0         1
     12742     12741     12743         0         1
     12745     12744     12746         0         1
     12748     12747     12749         0         1
     12751     12750     12752         0         1
     12754     12753     12755         0         1
     12757     12756     12758         0         1
     12760     12759     12761         0         1
     12763     12762     12764         0         1
     12766     12765     12767         0         1
     12769     12768     12770         0         1
     12772     12771     12773         0         1
     12775     12774     12776         0         1
     12778     12777     12779         0         1
     12781     12780     12782         0         1
     12784     12783     12785         0         1
     12787     12786     12788         0         1
     12790     12789     12791         0         1
     12793     12792     12794         0         1
     12796     12795     12797         0         1
     12799     12798     12800         0         1
     12802     12801     12803         0         1
     12805     12804     12806         0         1
     12808     12807     12809         0         1
     12811     12810     12812         0         1
     12814     12813     12815         0         1
     12817     12816     12818         0         1
     12820     12819     12821         0         1
     12823     12822     12824         0         1
     12826     12825     12827         0         1
     12829     12828     12830         0         1
     12832     12831     12833         0         1
     12835     12834     12836         0         1
     12838     12837     12839         0         1
     12841     12840     12842         0         1
     12844     12843     12845         0         1
     12847     12846     12848         0         1
     12850     12849     12851         0         1
     12853     12852     12854         0         1
     12856     12855     12857         0         1
     12859     12858     12860         0         1
     12862     12861     12863         0         1
     12865     12864     12866         0         1
     12868     12867     12869         0         1
     12871     12870     12872         0         1
     12874     12873     12875         0         1
     12877     12876     12878         0         1
     12880     12879     12881         0         1
     12883     12882     12884         0         1
     12886     12885     12887         0         1
     12889     12888     12890         0         1
     12892     12891     12893         0         1
     12895     12894     12896         0         1
     12898     12897     12899         0         1
     12901     12900     12902         0         1
     12904     12903     12905         0         1
     12907     12906     12908         0         1
     12910     12909     12911         0         1
     12913     12912     12914         0         1
     12916     12915     12917         0         1
     12919     12918     12920         0         1
     12922     12921     12923         0         1
     12925     12924     12926         0         1
     12928     12927     12929         0         1
     12931     12930     12932         0         1
     12934     12933     12935         0         1
     12937     12936     12938         0         1
     12940     12939     12941         0         1
     12943     12942     12944         0         1
     12946     12945     12947         0         1
     12949     12948     12950         0         1
     12952     12951     12953         0         1
     12955     12954     12956         0         1
     12958     12957     12959         0         1
     12961     12960     12962         0         1
     12964     12963     12965         0         1
     12967     12966     12968         0         1
     12970     12969     12971         0         1
     12973     12972     12974         0         1
     12976     12975     12977         0         1
     12979     12978     12980         0         1
     12982     12981     12983         0         1
     12985     12984     12986         0         1
     12988     12987     12989         0         1
     12991     12990     12992         0         1
     12994     12993     12995         0         1
     12997     12996     12998         0         1
     13000     12999     13001         0         1
     13003     13002     13004         0         1
     13006     13005     13007         0         1
     13009     13008     13010         0         1
     13012     13011     13013         0         1
     13015     13014     13016         0         1
     13018     13017     13019         0         1
     13021     13020     13022         0         1
     13024     13023     13025         0         1
     13027     13026     13028         0         1
     13030     13029     13031         0         1
     13033     13032     13034         0         1
     13036     13035     13037         0         1
     13039     13038     13040         0         1
     13042     13041     13043         0         1
     13045     13044     13046         0         1
     13048     13047     13049         0         1
     13051     13050     13052         0         1
     13054     13053     13055         0         1
     13057     13056     13058         0         1
     13060     13059     13061         0         1
     13063     13062     13064         0         1
     13066     13065     13067         0         1
     13069     13068     13070         0         1
     13072     13071     13073         0         1
     13075     13074     13076         0         1
     13078     13077     13079         0         1
     13081     13080     13082         0         1
     13084     13083     13085         0         1
     13087     13086     13088         0         1
     13090     13089     13091         0         1
     13093     13092     13094         0         1
     13096     13095     13097         0         1
     13099     13098     13100         0         1
     13102     13101     13103         0         1
     13105     13104     13106         0         1
     13108     13107     13109         0         1
     13111     13110     13112         0         1
     13114     13113     13115         0         1
     13117     13116     13118         0         1
     13120     13119     13121         0         1
     13123     13122     13124         0         1
     13126     13125     13127         0         1
     13129     13128     13130         0         1
     13132     13131     13133         0         1
     13135     13134     13136         0         1
     13138     13137     13139         0         1
     13141     13140     13142         0         1
     13144     13143     13145         0         1
     13147     13146     13148         0         1
     13150     13149     13151         0         1
     13153     13152     13154         0         1
     13156     13155     13157         0         1
     13159     13158     13160         0         1
     13162     13161     13163         0         1
     13165     13164     13166         0         1
     13168     13167     13169         0         1
     13171     13170     13172         0         1
     13174     13173     13175         0         1
     13177     13176     13178         0         1
     13180     13179     13181         0         1
     13183     13182     13184         0         1
     13186     13185     13187         0         1
     13189     13188     13190         0         1
     13192     13191     13193         0         1
     13195     13194     13196         0         1
     13198     13197     13199         0         1
     13201     13200     13202         0         1
     13204     13203     13205         0         1
     13207     13206     13208         0         1
     13210     13209     13211         0         1
     13213     13212     13214         0         1
     13216     13215     13217         0         1
     13219     13218     13220         0         1
     13222     13221     13223         0         1
     13225     13224     13226         0         1
     13228     13227     13229         0         1
     13231     13230     13232         0         1
     13234     13233     13235         0         1
     13237     13236     13238         0         1
     13240     13239     13241         0         1
     13243     13242     13244         0         1
     13246     13245     13247         0         1
     13249     13248     13250         0         1
     13252     13251     13253         0         1
     13255     13254     13256         0         1
     13258     13257     13259         0         1
     13261     13260     13262         0         1
     13264     13263     13265         0         1
     13267     13266     13268         0         1
     13270     13269     13271         0         1
     13273     13272     13274         0         1
     13276     13275     13277         0         1
     13279     13278     13280         0         1
     13282     13281     13283         0         1
     13285     13284     13286         0         1
     13288     13287     13289         0         1
     13291     13290     13292         0         1
     13294     13293     13295         0         1
     13297     13296     13298         0         1
     13300     13299     13301         0         1
     13303     13302     13304         0         1
     13306     13305     13307         0         1
     13309     13308     13310         0         1
     13312     13311     13313         0         1
     13315     13314     13316         0         1
     13318     13317     13319         0         1
     13321     13320     13322         0         1
     13324     13323     13325         0         1
     13327     13326     13328         0         1
     13330     13329     13331         0         1
     13333     13332     13334         0         1
     13336     13335     13337         0         1
     13339     13338     13340         0         1
     13342     13341     13343         0         1
     13345     13344     13346         0         1
     13348     13347     13349         0         1
     13351     13350     13352         0         1
     13354     13353     13355         0         1
     13357     13356     13358         0         1
     13360     13359     13361         0         1
     13363     13362     13364         0         1
     13366     13365     13367         0         1
     13369     13368     13370         0         1
     13372     13371     13373         0         1
     13375     13374     13376         0         1
     13378     13377     13379         0         1
     13381     13380     13382         0         1
     13384     13383     13385         0         1
     13387     13386     13388         0         1
     13390     13389     13391         0         1
     13393     13392     13394         0         1
     13396     13395     13397         0         1
     13399     13398     13400         0         1
     13402     13401     13403         0         1
     13405     13404     13406         0         1
     13408     13407     13409         0         1
     13411     13410     13412         0         1
     13414     13413     13415         0         1
     13417     13416     13418         0         1
     13420     13419     13421         0         1
     13423     13422     13424         0         1
     13426     13425     13427         0         1
     13429     13428     13430         0         1
     13432     13431     13433         0         1
     13435     13434     13436         0         1
     13438     13437     13439         0         1
     13441     13440     13442         0         1
     13444     13443     13445         0         1
     13447     13446     13448         0         1
     13450     13449     13451         0         1
     13453     13452     13454         0         1
     13456     13455     13457         0         1
     13459     13458     13460         0         1
     13462     13461     13463         0         1
     13465     13464     13466         0         1
     13468     13467     13469         0         1
     13471     13470     13472         0         1
     13474     13473     13475         0         1
     13477     13476     13478         0         1
     13480     13479     13481         0         1
     13483     13482     13484         0         1
     13486     13485     13487         0         1
     13489     13488     13490         0         1
     13492     13491     13493         0         1
     13495     13494     13496         0         1
     13498     13497     13499         0         1
     13501     13500     13502         0         1
     13504     13503     13505         0         1
     13507     13506     13508         0         1
     13510     13509     13511         0         1
     13513     13512     13514         0         1
     13516     13515     13517         0         1
     13519     13518     13520         0         1
     13522     13521     13523         0         1
     13525     13524     13526         0         1
     13528     13527     13529         0         1
     13531     13530     13532         0         1
     13534     13533     13535         0         1
     13537     13536     13538         0         1
     13540     13539     13541         0         1
     13543     13542     13544         0         1
     13546     13545     13547         0         1
     13549     13548     13550         0         1
     13552     13551     13553         0         1
     13555     13554     13556         0         1
     13558     13557     13559         0         1
     13561     13560     13562         0         1
     13564     13563     13565         0         1
     13567     13566     13568         0         1
     13570     13569     13571         0         1
     13573     13572     13574         0         1
     13576     13575     13577         0         1
     13579     13578     13580         0         1
     13582     13581     13583         0         1
     13585     13584     13586         0         1
     13588     13587     13589         0         1
     13591     13590     13592         0         1
     13594     13593     13595         0         1
     13597     13596     13598         0         1
     13600     13599     13601         0         1
     13603     13602     13604         0         1
     13606     13605     13607         0         1
     13609     13608     13610         0         1
     13612     13611     13613         0         1
     13615     13614     13616         0         1
     13618     13617     13619         0         1
     13621     13620     13622         0         1
     13624     13623     13625         0         1
     13627     13626     13628         0         1
     13630     13629     13631         0         1
     13633     13632     13634         0         1
     13636     13635     13637         0         1
     13639     13638     13640         0         1
     13642     13641     13643         0         1
     13645     13644     13646         0         1
     13648     13647     13649         0         1
     13651     13650     13652         0         1
     13654     13653     13655         0         1
     13657     13656     13658         0         1
     13660     13659     13661         0         1
     13663     13662     13664         0         1
     13666     13665     13667         0         1
     13669     13668     13670         0         1
     13672     13671     13673         0         1
     13675     13674     13676         0         1
     13678     13677     13679         0         1
     13681     13680     13682         0         1
     13684     13683     13685         0         1
     13687     13686     13688         0         1
     13690     13689     13691         0         1
     13693     13692     13694         0         1
     13696     13695     13697         0         1
     13699     13698     13700         0         1
     13702     13701     13703         0         1
     13705     13704     13706         0         1
     13708     13707     13709         0         1
     13711     13710     13712         0         1
     13714     13713     13715         0         1
     13717     13716     13718         0         1
     13720     13719     13721         0         1
     13723     13722     13724         0         1
     13726     13725     13727         0         1
     13729     13728     13730         0         1
     13732     13731     13733         0         1
     13735     13734     13736         0         1
     13738     13737     13739         0         1
     13741     13740     13742         0         1
     13744     13743     13745         0         1
     13747     13746     13748         0         1
     13750     13749     13751         0         1
     13753     13752     13754         0         1
     13756     13755     13757         0         1
     13759     13758     13760         0         1
     13762     13761     13763         0         1
     13765     13764     13766         0         1
     13768     13767     13769         0         1
     13771     13770     13772         0         1
     13774     13773     13775         0         1
     13777     13776     13778         0         1
     13780     13779     13781         0         1
     13783     13782     13784         0         1
     13786     13785     13787         0         1
     13789     13788     13790         0         1
     13792     13791     13793         0         1
     13795     13794     13796         0         1
     13798     13797     13799         0         1
     13801     13800     13802         0         1
     13804     13803     13805         0         1
     13807     13806     13808         0         1
     13810     13809     13811         0         1
     13813     13812     13814         0         1
     13816     13815     13817         0         1
     13819     13818     13820         0         1
     13822     13821     13823         0         1
     13825     13824     13826         0         1
     13828     13827     13829         0         1
     13831     13830     13832         0         1
     13834     13833     13835         0         1
     13837     13836     13838         0         1
     13840     13839     13841         0         1
     13843     13842     13844         0         1
     13846     13845     13847         0         1
     13849     13848     13850         0         1
     13852     13851     13853         0         1
     13855     13854     13856         0         1
     13858     13857     13859         0         1
     13861     13860     13862         0         1
     13864     13863     13865         0         1
     13867     13866     13868         0         1
     13870     13869     13871         0         1
     13873     13872     13874         0         1
     13876     13875     13877         0         1
     13879     13878     13880         0         1
     13882     13881     13883         0         1
     13885     13884     13886         0         1
     13888     13887     13889         0         1
     13891     13890     13892         0         1
     13894     13893     13895         0         1
     13897     13896     13898         0         1
     13900     13899     13901         0         1
     13903     13902     13904         0         1
     13906     13905     13907         0         1
     13909     13908     13910         0         1
     13912     13911     13913         0         1
     13915     13914     13916         0         1
     13918     13917     13919         0         1
     13921     13920     13922         0         1
     13924     13923     13925         0         1
     13927     13926     13928         0         1
     13930     13929     13931         0         1
     13933     13932     13934         0         1
     13936     13935     13937         0         1
     13939     13938     13940         0         1
     13942     13941     13943         0         1
     13945     13944     13946         0         1
     13948     13947     13949         0         1
     13951     13950     13952         0         1
     13954     13953     13955         0         1
     13957     13956     13958         0         1
     13960     13959     13961         0         1
     13963     13962     13964         0         1
     13966     13965     13967         0         1
     13969     13968     13970         0         1
     13972     13971     13973         0         1
     13975     13974     13976         0         1
     13978     13977     13979         0         1
     13981     13980     13982         0         1
     13984     13983     13985         0         1
     13987     13986     13988         0         1
     13990     13989     13991         0         1
     13993     13992     13994         0         1
     13996     13995     13997         0         1
     13999     13998     14000         0         1
     14002     14001     14003         0         1
     14005     14004     14006         0         1
     14008     14007     14009         0         1
     14011     14010     14012         0         1
     14014     14013     14015         0         1
     14017     14016     14018         0         1
     14020     14019     14021         0         1
     14023     14022     14024         0         1
     14026     14025     14027         0         1
     14029     14028     14030         0         1
     14032     14031     14033         0         1
     14035     14034     14036         0         1
     14038     14037     14039         0         1
     14041     14040     14042         0         1
     14044     14043     14045         0         1
     14047     14046     14048         0         1
     14050     14049     14051         0         1
     14053     14052     14054         0         1
     14056     14055     14057         0         1
     14059     14058     14060         0         1
     14062     14061     14063         0         1
     14065     14064     14066         0         1
     14068     14067     14069         0         1
     14071     14070     14072         0         1
     14074     14073     14075         0         1
     14077     14076     14078         0         1
     14080     14079     14081         0         1
     14083     14082     14084         0         1
     14086     14085     14087         0         1
     14089     14088     14090         0         1
     14092     14091     14093         0         1
     14095     14094     14096         0         1
     14098     14097     14099         0         1
     14101     14100     14102         0         1
     14104     14103     14105         0         1
     14107     14106     14108         0         1
     14110     14109     14111         0         1
     14113     14112     14114         0         1
     14116     14115     14117         0         1
     14119     14118     14120         0         1
     14122     14121     14123         0         1
     14125     14124     14126         0         1
     14128     14127     14129         0         1
     14131     14130     14132         0         1
     14134     14133     14135         0         1
     14137     14136     14138         0         1
     14140     14139     14141         0         1
     14143     14142     14144         0         1
     14146     14145     14147         0         1
     14149     14148     14150         0         1
     14152     14151     14153         0         1
     14155     14154     14156         0         1
     14158     14157     14159         0         1
     14161     14160     14162         0         1
     14164     14163     14165         0         1
     14167     14166     14168         0         1
     14170     14169     14171         0         1
     14173     14172     14174         0         1
     14176     14175     14177         0         1
     14179     14178     14180         0         1
     14182     14181     14183         0         1
     14185     14184     14186         0         1
     14188     14187     14189         0         1
     14191     14190     14192         0         1
     14194     14193     14195         0         1
     14197     14196     14198         0         1
     14200     14199     14201         0         1
     14203     14202     14204         0         1
     14206     14205     14207         0         1
     14209     14208     14210         0         1
     14212     14211     14213         0         1
     14215     14214     14216         0         1
     14218     14217     14219         0         1
     14221     14220     14222         0         1
     14224     14223     14225         0         1
     14227     14226     14228         0         1
     14230     14229     14231         0         1
     14233     14232     14234         0         1
     14236     14235     14237         0         1
     14239     14238     14240         0         1
     14242     14241     14243         0         1
     14245     14244     14246         0         1
     14248     14247     14249         0         1
     14251     14250     14252         0         1
     14254     14253     14255         0         1
     14257     14256     14258         0         1
     14260     14259     14261         0         1
     14263     14262     14264         0         1
     14266     14265     14267         0         1
     14269     14268     14270         0         1
     14272     14271     14273         0         1
     14275     14274     14276         0         1
     14278     14277     14279         0         1
     14281     14280     14282         0         1
     14284     14283     14285         0         1
     14287     14286     14288         0         1
     14290     14289     14291         0         1
     14293     14292     14294         0         1
     14296     14295     14297         0         1
     14299     14298     14300         0         1
     14302     14301     14303         0         1
     14305     14304     14306         0         1
     14308     14307     14309         0         1
     14311     14310     14312         0         1
     14314     14313     14315         0         1
     14317     14316     14318         0         1
     14320     14319     14321         0         1
     14323     14322     14324         0         1
     14326     14325     14327         0         1
     14329     14328     14330         0         1
     14332     14331     14333         0         1
     14335     14334     14336         0         1
     14338     14337     14339         0         1
     14341     14340     14342         0         1
     14344     14343     14345         0         1
     14347     14346     14348         0         1
     14350     14349     14351         0         1
     14353     14352     14354         0         1
     14356     14355     14357         0         1
     14359     14358     14360         0         1
     14362     14361     14363         0         1
     14365     14364     14366         0         1
     14368     14367     14369         0         1
     14371     14370     14372         0         1
     14374     14373     14375         0         1
     14377     14376     14378         0         1
     14380     14379     14381         0         1
     14383     14382     14384         0         1
     14386     14385     14387         0         1
     14389     14388     14390         0         1
     14392     14391     14393         0         1
     14395     14394     14396         0         1
     14398     14397     14399         0         1
     14401     14400     14402         0         1
     14404     14403     14405         0         1
     14407     14406     14408         0         1
     14410     14409     14411         0         1
     14413     14412     14414         0         1
     14416     14415     14417         0         1
     14419     14418     14420         0         1
     14422     14421     14423         0         1
     14425     14424     14426         0         1
     14428     14427     14429         0         1
     14431     14430     14432         0         1
     14434     14433     14435         0         1
     14437     14436     14438         0         1
     14440     14439     14441         0         1
     14443     14442     14444         0         1
     14446     14445     14447         0         1
     14449     14448     14450         0         1
     14452     14451     14453         0         1
     14455     14454     14456         0         1
     14458     14457     14459         0         1
     14461     14460     14462         0         1
     14464     14463     14465         0         1
     14467     14466     14468         0         1
     14470     14469     14471         0         1
     14473     14472     14474         0         1
     14476     14475     14477         0         1
     14479     14478     14480         0         1
     14482     14481     14483         0         1
     14485     14484     14486         0         1
     14488     14487     14489         0         1
     14491     14490     14492         0         1
     14494     14493     14495         0         1
     14497     14496     14498         0         1
     14500     14499     14501         0         1
     14503     14502     14504         0         1
     14506     14505     14507         0         1
     14509     14508     14510         0         1
     14512     14511     14513         0         1
     14515     14514     14516         0         1
     14518     14517     14519         0         1
     14521     14520     14522         0         1
     14524     14523     14525         0         1
     14527     14526     14528         0         1
     14530     14529     14531         0         1
     14533     14532     14534         0         1
     14536     14535     14537         0         1
     14539     14538     14540         0         1
     14542     14541     14543         0         1
     14545     14544     14546         0         1
     14548     14547     14549         0         1
     14551     14550     14552         0         1
     14554     14553     14555         0         1
     14557     14556     14558         0         1
     14560     14559     14561         0         1
     14563     14562     14564         0         1
     14566     14565     14567         0         1
     14569     14568     14570         0         1
     14572     14571     14573         0         1
     14575     14574     14576         0         1
     14578     14577     14579         0         1
     14581     14580     14582         0         1
     14584     14583     14585         0         1
     14587     14586     14588         0         1
     14590     14589     14591         0         1
     14593     14592     14594         0         1
     14596     14595     14597         0         1
     14599     14598     14600         0         1
     14602     14601     14603         0         1
     14605     14604     14606         0         1
     14608     14607     14609         0         1
     14611     14610     14612         0         1
     14614     14613     14615         0         1
     14617     14616     14618         0         1
     14620     14619     14621         0         1
     14623     14622     14624         0         1
     14626     14625     14627         0         1
     14629     14628     14630         0         1
     14632     14631     14633         0         1
     14635     14634     14636         0         1
     14638     14637     14639         0         1
     14641     14640     14642         0         1
     14644     14643     14645         0         1
     14647     14646     14648         0         1
     14650     14649     14651         0         1
     14653     14652     14654         0         1
     14656     14655     14657         0         1
     14659     14658     14660         0         1
     14662     14661     14663         0         1
     14665     14664     14666         0         1
     14668     14667     14669         0         1
     14671     14670     14672         0         1
     14674     14673     14675         0         1
     14677     14676     14678         0         1
     14680     14679     14681         0         1
     14683     14682     14684         0         1
     14686     14685     14687         0         1
     14689     14688     14690         0         1
     14692     14691     14693         0         1
     14695     14694     14696         0         1
     14698     14697     14699         0         1
     14701     14700     14702         0         1
     14704     14703     14705         0         1
     14707     14706     14708         0         1
     14710     14709     14711         0         1
     14713     14712     14714         0         1
     14716     14715     14717         0         1
     14719     14718     14720         0         1
     14722     14721     14723         0         1
     14725     14724     14726         0         1
     14728     14727     14729         0         1
     14731     14730     14732         0         1
     14734     14733     14735         0         1
     14737     14736     14738         0         1
     14740     14739     14741         0         1
     14743     14742     14744         0         1
     14746     14745     14747         0         1
     14749     14748     14750         0         1
     14752     14751     14753         0         1
     14755     14754     14756         0         1
     14758     14757     14759         0         1
     14761     14760     14762         0         1
     14764     14763     14765         0         1
     14767     14766     14768         0         1
     14770     14769     14771         0         1
     14773     14772     14774         0         1
     14776     14775     14777         0         1
     14779     14778     14780         0         1
     14782     14781     14783         0         1
     14785     14784     14786         0         1
     14788     14787     14789         0         1
     14791     14790     14792         0         1
     14794     14793     14795         0         1
     14797     14796     14798         0         1
     14800     14799     14801         0         1
     14803     14802     14804         0         1
     14806     14805     14807         0         1
     14809     14808     14810         0         1
     14812     14811     14813         0         1
     14815     14814     14816         0         1
     14818     14817     14819         0         1
     14821     14820     14822         0         1
     14824     14823     14825         0         1
     14827     14826     14828         0         1
     14830     14829     14831         0         1
     14833     14832     14834         0         1
     14836     14835     14837         0         1
     14839     14838     14840         0         1
     14842     14841     14843         0         1
     14845     14844     14846         0         1
     14848     14847     14849         0         1
     14851     14850     14852         0         1
     14854     14853     14855         0         1
     14857     14856     14858         0         1
     14860     14859     14861         0         1
     14863     14862     14864         0         1
     14866     14865     14867         0         1
     14869     14868     14870         0         1
     14872     14871     14873         0         1
     14875     14874     14876         0         1
     14878     14877     14879         0         1
     14881     14880     14882         0         1
     14884     14883     14885         0         1
     14887     14886     14888         0         1
     14890     14889     14891         0         1
     14893     14892     14894         0         1
     14896     14895     14897         0         1
     14899     14898     14900         0         1
     14902     14901     14903         0         1
     14905     14904     14906         0         1
     14908     14907     14909         0         1
     14911     14910     14912         0         1
     14914     14913     14915         0         1
     14917     14916     14918         0         1
     14920     14919     14921         0         1
     14923     14922     14924         0         1
     14926     14925     14927         0         1
     14929     14928     14930         0         1
     14932     14931     14933         0         1
     14935     14934     14936         0         1
     14938     14937     14939         0         1
     14941     14940     14942         0         1
     14944     14943     14945         0         1
     14947     14946     14948         0         1
     14950     14949     14951         0         1
     14953     14952     14954         0         1
     14956     14955     14957         0         1
     14959     14958     14960         0         1
     14962     14961     14963         0         1
     14965     14964     14966         0         1
     14968     14967     14969         0         1
     14971     14970     14972         0         1
     14974     14973     14975         0         1
     14977     14976     14978         0         1
     14980     14979     14981         0         1
     14983     14982     14984         0         1
     14986     14985     14987         0         1
     14989     14988     14990         0         1
     14992     14991     14993         0         1
     14995     14994     14996         0         1
     14998     14997     14999         0         1
     15001     15000     15002         0         1
     15004     15003     15005         0         1
     15007     15006     15008         0         1
     15010     15009     15011         0         1
     15013     15012     15014         0         1
     15016     15015     15017         0         1
     15019     15018     15020         0         1
     15022     15021     15023         0         1
     15025     15024     15026         0         1
     15028     15027     15029         0         1
     15031     15030     15032         0         1
     15034     15033     15035         0         1
     15037     15036     15038         0         1
     15040     15039     15041         0         1
     15043     15042     15044         0         1
     15046     15045     15047         0         1
     15049     15048     15050         0         1
     15052     15051     15053         0         1
     15055     15054     15056         0         1
     15058     15057     15059         0         1
     15061     15060     15062         0         1
     15064     15063     15065         0         1
     15067     15066     15068         0         1
     15070     15069     15071         0         1
     15073     15072     15074         0         1
     15076     15075     15077         0         1
     15079     15078     15080         0         1
     15082     15081     15083         0         1
     15085     15084     15086         0         1
     15088     15087     15089         0         1
     15091     15090     15092         0         1
     15094     15093     15095         0         1
     15097     15096     15098         0         1
     15100     15099     15101         0         1
     15103     15102     15104         0         1
     15106     15105     15107         0         1
     15109     15108     15110         0         1
     15112     15111     15113         0         1
     15115     15114     15116         0         1
     15118     15117     15119         0         1
     15121     15120     15122         0         1
     15124     15123     15125         0         1
     15127     15126     15128         0         1
     15130     15129     15131         0         1
     15133     15132     15134         0         1
     15136     15135     15137         0         1
     15139     15138     15140         0         1
     15142     15141     15143         0         1
     15145     15144     15146         0         1
     15148     15147     15149         0         1
     15151     15150     15152         0         1
     15154     15153     15155         0         1
     15157     15156     15158         0         1
     15160     15159     15161         0         1
     15163     15162     15164         0         1
     15166     15165     15167         0         1
     15169     15168     15170         0         1
     15172     15171     15173         0         1
     15175     15174     15176         0         1
     15178     15177     15179         0         1
     15181     15180     15182         0         1
     15184     15183     15185         0         1
     15187     15186     15188         0         1
     15190     15189     15191         0         1
     15193     15192     15194         0         1
     15196     15195     15197         0         1
     15199     15198     15200         0         1
     15202     15201     15203         0         1
     15205     15204     15206         0         1
     15208     15207     15209         0         1
     15211     15210     15212         0         1
     15214     15213     15215         0         1
     15217     15216     15218         0         1
     15220     15219     15221         0         1
     15223     15222     15224         0         1
     15226     15225     15227         0         1
     15229     15228     15230         0         1
     15232     15231     15233         0         1
     15235     15234     15236         0         1
     15238     15237     15239         0         1
     15241     15240     15242         0         1
     15244     15243     15245         0         1
     15247     15246     15248         0         1
     15250     15249     15251         0         1
     15253     15252     15254         0         1
     15256     15255     15257         0         1
     15259     15258     15260         0         1
     15262     15261     15263         0         1
     15265     15264     15266         0         1
     15268     15267     15269         0         1
     15271     15270     15272         0         1
     15274     15273     15275         0         1
     15277     15276     15278         0         1
     15280     15279     15281         0         1
     15283     15282     15284         0         1
     15286     15285     15287         0         1
     15289     15288     15290         0         1
     15292     15291     15293         0         1
     15295     15294     15296         0         1
     15298     15297     15299         0         1
     15301     15300     15302         0         1
     15304     15303     15305         0         1
     15307     15306     15308         0         1
     15310     15309     15311         0         1
     15313     15312     15314         0         1
     15316     15315     15317         0         1
     15319     15318     15320         0         1
     15322     15321     15323         0         1
     15325     15324     15326         0         1
     15328     15327     15329         0         1
     15331     15330     15332         0         1
     15334     15333     15335         0         1
     15337     15336     15338         0         1
     15340     15339     15341         0         1
     15343     15342     15344         0         1
     15346     15345     15347         0         1
     15349     15348     15350         0         1
     15352     15351     15353         0         1
     15355     15354     15356         0         1
     15358     15357     15359         0         1
     15361     15360     15362         0         1
     15364     15363     15365         0         1
     15367     15366     15368         0         1
     15370     15369     15371         0         1
     15373     15372     15374         0         1
     15376     15375     15377         0         1
     15379     15378     15380         0         1
     15382     15381     15383         0         1
     15385     15384     15386         0         1
     15388     15387     15389         0         1
     15391     15390     15392         0         1
     15394     15393     15395         0         1
     15397     15396     15398         0         1
     15400     15399     15401         0         1
     15403     15402     15404         0         1
     15406     15405     15407         0         1
     15409     15408     15410         0         1
     15412     15411     15413         0         1
     15415     15414     15416         0         1
     15418     15417     15419         0         1
     15421     15420     15422         0         1
     15424     15423     15425         0         1
     15427     15426     15428         0         1
     15430     15429     15431         0         1
     15433     15432     15434         0         1
     15436     15435     15437         0         1
     15439     15438     15440         0         1
     15442     15441     15443         0         1
     15445     15444     15446         0         1
     15448     15447     15449         0         1
     15451     15450     15452         0         1
     15454     15453     15455         0         1
     15457     15456     15458         0         1
     15460     15459     15461         0         1
     15463     15462     15464         0         1
     15466     15465     15467         0         1
     15469     15468     15470         0         1
     15472     15471     15473         0         1
     15475     15474     15476         0         1
     15478     15477     15479         0         1
     15481     15480     15482         0         1
     15484     15483     15485         0         1
     15487     15486     15488         0         1
     15490     15489     15491         0         1
     15493     15492     15494         0         1
     15496     15495     15497         0         1
     15499     15498     15500         0         1
     15502     15501     15503         0         1
     15505     15504     15506         0         1
     15508     15507     15509         0         1
     15511     15510     15512         0         1
     15514     15513     15515         0         1
     15517     15516     15518         0         1
     15520     15519     15521         0         1
     15523     15522     15524         0         1
     15526     15525     15527         0         1
     15529     15528     15530         0         1
     15532     15531     15533         0         1
     15535     15534     15536         0         1
     15538     15537     15539         0         1
     15541     15540     15542         0         1
     15544     15543     15545         0         1
     15547     15546     15548         0         1
     15550     15549     15551         0         1
     15553     15552     15554         0         1
     15556     15555     15557         0         1
     15559     15558     15560         0         1
     15562     15561     15563         0         1
     15565     15564     15566         0         1
     15568     15567     15569         0         1
     15571     15570     15572         0         1
     15574     15573     15575         0         1
     15577     15576     15578         0         1
     15580     15579     15581         0         1
     15583     15582     15584         0         1
     15586     15585     15587         0         1
     15589     15588     15590         0         1
     15592     15591     15593         0         1
     15595     15594     15596         0         1
     15598     15597     15599         0         1
     15601     15600     15602         0         1
     15604     15603     15605         0         1
     15607     15606     15608         0         1
     15610     15609     15611         0         1
     15613     15612     15614         0         1
     15616     15615     15617         0         1
     15619     15618     15620         0         1
     15622     15621     15623         0         1
     15625     15624     15626         0         1
     15628     15627     15629         0         1
     15631     15630     15632         0         1
     15634     15633     15635         0         1
     15637     15636     15638         0         1
     15640     15639     15641         0         1
     15643     15642     15644         0         1
     15646     15645     15647         0         1
     15649     15648     15650         0         1
     15652     15651     15653         0         1
     15655     15654     15656         0         1
     15658     15657     15659         0         1
     15661     15660     15662         0         1
     15664     15663     15665         0         1
     15667     15666     15668         0         1
     15670     15669     15671         0         1
     15673     15672     15674         0         1
     15676     15675     15677         0         1
     15679     15678     15680         0         1
     15682     15681     15683         0         1
     15685     15684     15686         0         1
     15688     15687     15689         0         1
     15691     15690     15692         0         1
     15694     15693     15695         0         1
     15697     15696     15698         0         1
     15700     15699     15701         0         1
     15703     15702     15704         0         1
     15706     15705     15707         0         1
     15709     15708     15710         0         1
     15712     15711     15713         0         1
     15715     15714     15716         0         1
     15718     15717     15719         0         1
     15721     15720     15722         0         1
     15724     15723     15725         0         1
     15727     15726     15728         0         1
     15730     15729     15731         0         1
     15733     15732     15734         0         1
     15736     15735     15737         0         1
     15739     15738     15740         0         1
     15742     15741     15743         0         1
     15745     15744     15746         0         1
     15748     15747     15749         0         1
     15751     15750     15752         0         1
     15754     15753     15755         0         1
     15757     15756     15758         0         1
     15760     15759     15761         0         1
     15763     15762     15764         0         1
     15766     15765     15767         0         1
     15769     15768     15770         0         1
     15772     15771     15773         0         1
     15775     15774     15776         0         1
     15778     15777     15779         0         1
     15781     15780     15782         0         1
     15784     15783     15785         0         1
     15787     15786     15788         0         1
     15790     15789     15791         0         1
     15793     15792     15794         0         1
     15796     15795     15797         0         1
     15799     15798     15800         0         1
     15802     15801     15803         0         1
     15805     15804     15806         0         1
     15808     15807     15809         0         1
     15811     15810     15812         0         1
     15814     15813     15815         0         1
     15817     15816     15818         0         1
     15820     15819     15821         0         1
     15823     15822     15824         0         1
     15826     15825     15827         0         1
     15829     15828     15830         0         1
     15832     15831     15833         0         1
     15835     15834     15836         0         1
     15838     15837     15839         0         1
     15841     15840     15842         0         1
     15844     15843     15845         0         1
     15847     15846     15848         0         1
     15850     15849     15851         0         1
     15853     15852     15854         0         1
     15856     15855     15857         0         1
     15859     15858     15860         0         1
     15862     15861     15863         0         1
     15865     15864     15866         0         1
     15868     15867     15869         0         1
     15871     15870     15872         0         1
     15874     15873     15875         0         1
     15877     15876     15878         0         1
     15880     15879     15881         0         1
     15883     15882     15884         0         1
     15886     15885     15887         0         1
     15889     15888     15890         0         1
     15892     15891     15893         0         1
     15895     15894     15896         0         1
     15898     15897     15899         0         1
     15901     15900     15902         0         1
     15904     15903     15905         0         1
     15907     15906     15908         0         1
     15910     15909     15911         0         1
     15913     15912     15914         0         1
     15916     15915     15917         0         1
     15919     15918     15920         0         1
     15922     15921     15923         0         1
     15925     15924     15926         0         1
     15928     15927     15929         0         1
     15931     15930     15932         0         1
     15934     15933     15935         0         1
     15937     15936     15938         0         1
     15940     15939     15941         0         1
     15943     15942     15944         0         1
     15946     15945     15947         0         1
     15949     15948     15950         0         1
     15952     15951     15953         0         1
     15955     15954     15956         0         1
     15958     15957     15959         0         1
     15961     15960     15962         0         1
     15964     15963     15965         0         1
     15967     15966     15968         0         1
     15970     15969     15971         0         1
     15973     15972     15974         0         1
     15976     15975     15977         0         1
     15979     15978     15980         0         1
     15982     15981     15983         0         1
     15985     15984     15986         0         1
     15988     15987     15989         0         1
     15991     15990     15992         0         1
     15994     15993     15995         0         1
     15997     15996     15998         0         1
     16000     15999     16001         0         1
     16003     16002     16004         0         1
     16006     16005     16007         0         1
     16009     16008     16010         0         1
     16012     16011     16013         0         1
     16015     16014     16016         0         1
     16018     16017     16019         0         1
     16021     16020     16022         0         1
     16024     16023     16025         0         1
     16027     16026     16028         0         1
     16030     16029     16031         0         1
     16033     16032     16034         0         1
     16036     16035     16037         0         1
     16039     16038     16040         0         1
     16042     16041     16043         0         1
     16045     16044     16046         0         1
     16048     16047     16049         0         1
     16051     16050     16052         0         1
     16054     16053     16055         0         1
     16057     16056     16058         0         1
     16060     16059     16061         0         1
     16063     16062     16064         0         1
     16066     16065     16067         0         1
     16069     16068     16070         0         1
     16072     16071     16073         0         1
     16075     16074     16076         0         1
     16078     16077     16079         0         1
     16081     16080     16082         0         1
     16084     16083     16085         0         1
     16087     16086     16088         0         1
     16090     16089     16091         0         1
     16093     16092     16094         0         1
     16096     16095     16097         0         1
     16099     16098     16100         0         1
     16102     16101     16103         0         1
     16105     16104     16106         0         1
     16108     16107     16109         0         1
     16111     16110     16112         0         1
     16114     16113     16115         0         1
     16117     16116     16118         0         1
     16120     16119     16121         0         1
     16123     16122     16124         0         1
     16126     16125     16127         0         1
     16129     16128     16130         0         1
     16132     16131     16133         0         1
     16135     16134     16136         0         1
     16138     16137     16139         0         1
     16141     16140     16142         0         1
     16144     16143     16145         0         1
     16147     16146     16148         0         1
     16150     16149     16151         0         1
     16153     16152     16154         0         1
     16156     16155     16157         0         1
     16159     16158     16160         0         1
     16162     16161     16163         0         1
     16165     16164     16166         0         1
     16168     16167     16169         0         1
     16171     16170     16172         0         1
     16174     16173     16175         0         1
     16177     16176     16178         0         1
     16180     16179     16181         0         1
     16183     16182     16184         0         1
     16186     16185     16187         0         1
     16189     16188     16190         0         1
     16192     16191     16193         0         1
     16195     16194     16196         0         1
     16198     16197     16199         0         1
     16201     16200     16202         0         1
     16204     16203     16205         0         1
     16207     16206     16208         0         1
     16210     16209     16211         0         1
     16213     16212     16214         0         1
     16216     16215     16217         0         1
     16219     16218     16220         0         1
     16222     16221     16223         0         1
     16225     16224     16226         0         1
     16228     16227     16229         0         1
     16231     16230     16232         0         1
     16234     16233     16235         0         1
     16237     16236     16238         0         1
     16240     16239     16241         0         1
     16243     16242     16244         0         1
     16246     16245     16247         0         1
     16249     16248     16250         0         1
     16252     16251     16253         0         1
     16255     16254     16256         0         1
     16258     16257     16259         0         1
     16261     16260     16262         0         1
     16264     16263     16265         0         1
     16267     16266     16268         0         1
     16270     16269     16271         0         1
     16273     16272     16274         0         1
     16276     16275     16277         0         1
     16279     16278     16280         0         1
     16282     16281     16283         0         1
     16285     16284     16286         0         1
     16288     16287     16289         0         1
     16291     16290     16292         0         1
     16294     16293     16295         0         1
     16297     16296     16298         0         1
     16300     16299     16301         0         1
     16303     16302     16304         0         1
     16306     16305     16307         0         1
     16309     16308     16310         0         1
     16312     16311     16313         0         1
     16315     16314     16316         0         1
     16318     16317     16319         0         1
     16321     16320     16322         0         1
     16324     16323     16325         0         1
     16327     16326     16328         0         1
     16330     16329     16331         0         1
     16333     16332     16334         0         1
     16336     16335     16337         0         1
     16339     16338     16340         0         1
     16342     16341     16343         0         1
     16345     16344     16346         0         1
     16348     16347     16349         0         1
     16351     16350     16352         0         1
     16354     16353     16355         0         1
     16357     16356     16358         0         1
     16360     16359     16361         0         1
     16363     16362     16364         0         1
     16366     16365     16367         0         1
     16369     16368     16370         0         1
     16372     16371     16373         0         1
     16375     16374     16376         0         1
     16378     16377     16379         0         1
     16381     16380     16382         0         1
     16384     16383     16385         0         1
     16387     16386     16388         0         1
     16390     16389     16391         0         1
     16393     16392     16394         0         1
     16396     16395     16397         0         1
     16399     16398     16400         0         1
     16402     16401     16403         0         1
     16405     16404     16406         0         1
     16408     16407     16409         0         1
     16411     16410     16412         0         1
     16414     16413     16415         0         1
     16417     16416     16418         0         1
     16420     16419     16421         0         1
     16423     16422     16424         0         1
     16426     16425     16427         0         1
     16429     16428     16430         0         1
     16432     16431     16433         0         1
     16435     16434     16436         0         1
     16438     16437     16439         0         1
     16441     16440     16442         0         1
     16444     16443     16445         0         1
     16447     16446     16448         0         1
     16450     16449     16451         0         1
     16453     16452     16454         0         1
     16456     16455     16457         0         1
     16459     16458     16460         0         1
     16462     16461     16463         0         1
     16465     16464     16466         0         1
     16468     16467     16469         0         1
     16471     16470     16472         0         1
     16474     16473     16475         0         1
     16477     16476     16478         0         1
     16480     16479     16481         0         1
     16483     16482     16484         0         1
     16486     16485     16487         0         1
     16489     16488     16490         0         1
     16492     16491     16493         0         1
     16495     16494     16496         0         1
     16498     16497     16499         0         1
     16501     16500     16502         0         1
     16504     16503     16505         0         1
     16507     16506     16508         0         1
     16510     16509     16511         0         1
     16513     16512     16514         0         1
     16516     16515     16517         0         1
     16519     16518     16520         0         1
     16522     16521     16523         0         1
     16525     16524     16526         0         1
     16528     16527     16529         0         1
     16531     16530     16532         0         1
     16534     16533     16535         0         1
     16537     16536     16538         0         1
     16540     16539     16541         0         1
     16543     16542     16544         0         1
     16546     16545     16547         0         1
     16549     16548     16550         0         1
     16552     16551     16553         0         1
     16555     16554     16556         0         1
     16558     16557     16559         0         1
     16561     16560     16562         0         1
     16564     16563     16565         0         1
     16567     16566     16568         0         1
     16570     16569     16571         0         1
     16573     16572     16574         0         1
     16576     16575     16577         0         1
     16579     16578     16580         0         1
     16582     16581     16583         0         1
     16585     16584     16586         0         1
     16588     16587     16589         0         1
     16591     16590     16592         0         1
     16594     16593     16595         0         1
     16597     16596     16598         0         1
     16600     16599     16601         0         1
     16603     16602     16604         0         1
     16606     16605     16607         0         1
     16609     16608     16610         0         1
     16612     16611     16613         0         1
     16615     16614     16616         0         1
     16618     16617     16619         0         1
     16621     16620     16622         0         1
     16624     16623     16625         0         1
     16627     16626     16628         0         1
     16630     16629     16631         0         1
     16633     16632     16634         0         1
     16636     16635     16637         0         1
     16639     16638     16640         0         1
     16642     16641     16643         0         1
     16645     16644     16646         0         1
     16648     16647     16649         0         1
     16651     16650     16652         0         1
     16654     16653     16655         0         1
     16657     16656     16658         0         1
     16660     16659     16661         0         1
     16663     16662     16664         0         1
     16666     16665     16667         0         1
     16669     16668     16670         0         1
     16672     16671     16673         0         1
     16675     16674     16676         0         1
     16678     16677     16679         0         1
     16681     16680     16682         0         1
     16684     16683     16685         0         1
     16687     16686     16688         0         1
     16690     16689     16691         0         1
     16693     16692     16694         0         1
     16696     16695     16697         0         1
     16699     16698     16700         0         1
     16702     16701     16703         0         1
     16705     16704     16706         0         1
     16708     16707     16709         0         1
     16711     16710     16712         0         1
     16714     16713     16715         0         1
     16717     16716     16718         0         1
     16720     16719     16721         0         1
     16723     16722     16724         0         1
     16726     16725     16727         0         1
     16729     16728     16730         0         1
     16732     16731     16733         0         1
     16735     16734     16736         0         1
     16738     16737     16739         0         1
     16741     16740     16742         0         1
     16744     16743     16745         0         1
     16747     16746     16748         0         1
     16750     16749     16751         0         1
     16753     16752     16754         0         1
     16756     16755     16757         0         1
     16759     16758     16760         0         1
     16762     16761     16763         0         1
     16765     16764     16766         0         1
     16768     16767     16769         0         1
     16771     16770     16772         0         1
     16774     16773     16775         0         1
     16777     16776     16778         0         1
     16780     16779     16781         0         1
     16783     16782     16784         0         1
     16786     16785     16787         0         1
     16789     16788     16790         0         1
     16792     16791     16793         0         1
     16795     16794     16796         0         1
     16798     16797     16799         0         1
     16801     16800     16802         0         1
     16804     16803     16805         0         1
     16807     16806     16808         0         1
     16810     16809     16811         0         1
     16813     16812     16814         0         1
     16816     16815     16817         0         1
     16819     16818     16820         0         1
     16822     16821     16823         0         1
     16825     16824     16826         0         1
     16828     16827     16829         0         1
     16831     16830     16832         0         1
     16834     16833     16835         0         1
     16837     16836     16838         0         1
     16840     16839     16841         0         1
     16843     16842     16844         0         1
     16846     16845     16847         0         1
     16849     16848     16850         0         1
     16852     16851     16853         0         1
     16855     16854     16856         0         1
     16858     16857     16859         0         1
     16861     16860     16862         0         1
     16864     16863     16865         0         1
     16867     16866     16868         0         1
     16870     16869     16871         0         1
     16873     16872     16874         0         1
     16876     16875     16877         0         1
     16879     16878     16880         0         1
     16882     16881     16883         0         1
     16885     16884     16886         0         1
     16888     16887     16889         0         1
     16891     16890     16892         0         1
     16894     16893     16895         0         1
     16897     16896     16898         0         1
     16900     16899     16901         0         1
     16903     16902     16904         0         1
     16906     16905     16907         0         1
     16909     16908     16910         0         1
     16912     16911     16913         0         1
     16915     16914     16916         0         1
     16918     16917     16919         0         1
     16921     16920     16922         0         1
     16924     16923     16925         0         1
     16927     16926     16928         0         1
     16930     16929     16931         0         1
     16933     16932     16934         0         1
     16936     16935     16937         0         1
     16939     16938     16940         0         1
     16942     16941     16943         0         1
     16945     16944     16946         0         1
     16948     16947     16949         0         1
     16951     16950     16952         0         1
     16954     16953     16955         0         1
     16957     16956     16958         0         1
     16960     16959     16961         0         1
     16963     16962     16964         0         1
     16966     16965     16967         0         1
     16969     16968     16970         0         1
     16972     16971     16973         0         1
     16975     16974     16976         0         1
     16978     16977     16979         0         1
     16981     16980     16982         0         1
     16984     16983     16985         0         1
     16987     16986     16988         0         1
     16990     16989     16991         0         1
     16993     16992     16994         0         1
     16996     16995     16997         0         1
     16999     16998     17000         0         1
     17002     17001     17003         0         1
     17005     17004     17006         0         1
     17008     17007     17009         0         1
     17011     17010     17012         0         1
     17014     17013     17015         0         1
     17017     17016     17018         0         1
     17020     17019     17021         0         1
     17023     17022     17024         0         1
     17026     17025     17027         0         1
     17029     17028     17030         0         1
     17032     17031     17033         0         1
     17035     17034     17036         0         1
     17038     17037     17039         0         1
     17041     17040     17042         0         1
     17044     17043     17045         0         1
     17047     17046     17048         0         1
     17050     17049     17051         0         1
     17053     17052     17054         0         1
     17056     17055     17057         0         1
     17059     17058     17060         0         1
     17062     17061     17063         0         1
     17065     17064     17066         0         1
     17068     17067     17069         0         1
     17071     17070     17072         0         1
     17074     17073     17075         0         1
     17077     17076     17078         0         1
     17080     17079     17081         0         1
     17083     17082     17084         0         1
     17086     17085     17087         0         1
     17089     17088     17090         0         1
     17092     17091     17093         0         1
     17095     17094     17096         0         1
     17098     17097     17099         0         1
     17101     17100     17102         0         1
     17104     17103     17105         0         1
     17107     17106     17108         0         1
     17110     17109     17111         0         1
     17113     17112     17114         0         1
     17116     17115     17117         0         1
     17119     17118     17120         0         1
     17122     17121     17123         0         1
     17125     17124     17126         0         1
     17128     17127     17129         0         1
     17131     17130     17132         0         1
     17134     17133     17135         0         1
     17137     17136     17138         0         1
     17140     17139     17141         0         1
     17143     17142     17144         0         1
     17146     17145     17147         0         1
     17149     17148     17150         0         1
     17152     17151     17153         0         1
     17155     17154     17156         0         1
     17158     17157     17159         0         1
     17161     17160     17162         0         1
     17164     17163     17165         0         1
     17167     17166     17168         0         1
     17170     17169     17171         0         1
     17173     17172     17174         0         1
     17176     17175     17177         0         1
     17179     17178     17180         0         1
     17182     17181     17183         0         1
     17185     17184     17186         0         1
     17188     17187     17189         0         1
     17191     17190     17192         0         1
     17194     17193     17195         0         1
     17197     17196     17198         0         1
     17200     17199     17201         0         1
     17203     17202     17204         0         1
     17206     17205     17207         0         1
     17209     17208     17210         0         1
     17212     17211     17213         0         1
     17215     17214     17216         0         1
     17218     17217     17219         0         1
     17221     17220     17222         0         1
     17224     17223     17225         0         1
     17227     17226     17228         0         1
     17230     17229     17231         0         1
     17233     17232     17234         0         1
     17236     17235     17237         0         1
     17239     17238     17240         0         1
     17242     17241     17243         0         1
     17245     17244     17246         0         1
     17248     17247     17249         0         1
     17251     17250     17252         0         1
     17254     17253     17255         0         1
     17257     17256     17258         0         1
     17260     17259     17261         0         1
     17263     17262     17264         0         1
     17266     17265     17267         0         1
     17269     17268     17270         0         1
     17272     17271     17273         0         1
     17275     17274     17276         0         1
     17278     17277     17279         0         1
     17281     17280     17282         0         1
     17284     17283     17285         0         1
     17287     17286     17288         0         1
     17290     17289     17291         0         1
     17293     17292     17294         0         1
     17296     17295     17297         0         1
     17299     17298     17300         0         1
     17302     17301     17303         0         1
     17305     17304     17306         0         1
     17308     17307     17309         0         1
     17311     17310     17312         0         1
     17314     17313     17315         0         1
     17317     17316     17318         0         1
     17320     17319     17321         0         1
     17323     17322     17324         0         1
     17326     17325     17327         0         1
     17329     17328     17330         0         1
     17332     17331     17333         0         1
     17335     17334     17336         0         1
     17338     17337     17339         0         1
     17341     17340     17342         0         1
     17344     17343     17345         0         1
     17347     17346     17348         0         1
     17350     17349     17351         0         1
     17353     17352     17354         0         1
     17356     17355     17357         0         1
     17359     17358     17360         0         1
     17362     17361     17363         0         1
     17365     17364     17366         0         1
     17368     17367     17369         0         1
     17371     17370     17372         0         1
     17374     17373     17375         0         1
     17377     17376     17378         0         1
     17380     17379     17381         0         1
     17383     17382     17384         0         1
     17386     17385     17387         0         1
     17389     17388     17390         0         1
     17392     17391     17393         0         1
     17395     17394     17396         0         1
     17398     17397     17399         0         1
     17401     17400     17402         0         1
     17404     17403     17405         0         1
     17407     17406     17408         0         1
     17410     17409     17411         0         1
     17413     17412     17414         0         1
     17416     17415     17417         0         1
     17419     17418     17420         0         1
     17422     17421     17423         0         1
     17425     17424     17426         0         1
     17428     17427     17429         0         1
     17431     17430     17432         0         1
     17434     17433     17435         0         1
     17437     17436     17438         0         1
     17440     17439     17441         0         1
     17443     17442     17444         0         1
     17446     17445     17447         0         1
     17449     17448     17450         0         1
     17452     17451     17453         0         1
     17455     17454     17456         0         1
     17458     17457     17459         0         1
     17461     17460     17462         0         1
     17464     17463     17465         0         1
     17467     17466     17468         0         1
     17470     17469     17471         0         1
     17473     17472     17474         0         1
     17476     17475     17477         0         1
     17479     17478     17480         0         1
     17482     17481     17483         0         1
     17485     17484     17486         0         1
     17488     17487     17489         0         1
     17491     17490     17492         0         1
     17494     17493     17495         0         1
     17497     17496     17498         0         1
     17500     17499     17501         0         1
     17503     17502     17504         0         1
     17506     17505     17507         0         1
     17509     17508     17510         0         1
     17512     17511     17513         0         1
     17515     17514     17516         0         1
     17518     17517     17519         0         1
     17521     17520     17522         0         1
     17524     17523     17525         0         1
     17527     17526     17528         0         1
     17530     17529     17531         0         1
     17533     17532     17534         0         1
     17536     17535     17537         0         1
     17539     17538     17540         0         1
     17542     17541     17543         0         1
     17545     17544     17546         0         1
     17548     17547     17549         0         1
     17551     17550     17552         0         1
     17554     17553     17555         0         1
     17557     17556     17558         0         1
     17560     17559     17561         0         1
     17563     17562     17564         0         1
     17566     17565     17567         0         1
     17569     17568     17570         0         1
     17572     17571     17573         0         1
     17575     17574     17576         0         1
     17578     17577     17579         0         1
     17581     17580     17582         0         1
     17584     17583     17585         0         1
     17587     17586     17588         0         1
     17590     17589     17591         0         1
     17593     17592     17594         0         1
     17596     17595     17597         0         1
     17599     17598     17600         0         1
     17602     17601     17603         0         1
     17605     17604     17606         0         1
     17608     17607     17609         0         1
     17611     17610     17612         0         1
     17614     17613     17615         0         1
     17617     17616     17618         0         1
     17620     17619     17621         0         1
     17623     17622     17624         0         1
     17626     17625     17627         0         1
     17629     17628     17630         0         1
     17632     17631     17633         0         1
     17635     17634     17636         0         1
     17638     17637     17639         0         1
     17641     17640     17642         0         1
     17644     17643     17645         0         1
     17647     17646     17648         0         1
     17650     17649     17651         0         1
     17653     17652     17654         0         1
     17656     17655     17657         0         1
     17659     17658     17660         0         1
     17662     17661     17663         0         1
     17665     17664     17666         0         1
     17668     17667     17669         0         1
     17671     17670     17672         0         1
     17674     17673     17675         0         1
     17677     17676     17678         0         1
     17680     17679     17681         0         1
     17683     17682     17684         0         1
     17686     17685     17687         0         1
     17689     17688     17690         0         1
     17692     17691     17693         0         1
     17695     17694     17696         0         1
     17698     17697     17699         0         1
     17701     17700     17702         0         1
     17704     17703     17705         0         1
     17707     17706     17708         0         1
     17710     17709     17711         0         1
     17713     17712     17714         0         1
     17716     17715     17717         0         1
     17719     17718     17720         0         1
     17722     17721     17723         0         1
     17725     17724     17726         0         1
     17728     17727     17729         0         1
     17731     17730     17732         0         1
     17734     17733     17735         0         1
     17737     17736     17738         0         1
     17740     17739     17741         0         1
     17743     17742     17744         0         1
     17746     17745     17747         0         1
     17749     17748     17750         0         1
     17752     17751     17753         0         1
     17755     17754     17756         0         1
     17758     17757     17759         0         1
     17761     17760     17762         0         1
     17764     17763     17765         0         1
     17767     17766     17768         0         1
     17770     17769     17771         0         1
     17773     17772     17774         0         1
     17776     17775     17777         0         1
     17779     17778     17780         0         1
     17782     17781     17783         0         1
     17785     17784     17786         0         1
     17788     17787     17789         0         1
     17791     17790     17792         0         1
     17794     17793     17795         0         1
     17797     17796     17798         0         1
     17800     17799     17801         0         1
     17803     17802     17804         0         1
     17806     17805     17807         0         1
     17809     17808     17810         0         1
     17812     17811     17813         0         1
     17815     17814     17816         0         1
     17818     17817     17819         0         1
     17821     17820     17822         0         1
     17824     17823     17825         0         1
     17827     17826     17828         0         1
     17830     17829     17831         0         1
     17833     17832     17834         0         1
     17836     17835     17837         0         1
     17839     17838     17840         0         1
     17842     17841     17843         0         1
     17845     17844     17846         0         1
     17848     17847     17849         0         1
     17851     17850     17852         0         1
     17854     17853     17855         0         1
     17857     17856     17858         0         1
     17860     17859     17861         0         1
     17863     17862     17864         0         1
     17866     17865     17867         0         1
     17869     17868     17870         0         1
     17872     17871     17873         0         1
     17875     17874     17876         0         1
     17878     17877     17879         0         1
     17881     17880     17882         0         1
     17884     17883     17885         0         1
     17887     17886     17888         0         1
     17890     17889     17891         0         1
     17893     17892     17894         0         1
     17896     17895     17897         0         1
     17899     17898     17900         0         1
     17902     17901     17903         0         1
     17905     17904     17906         0         1
     17908     17907     17909         0         1
     17911     17910     17912         0         1
     17914     17913     17915         0         1
     17917     17916     17918         0         1
     17920     17919     17921         0         1
     17923     17922     17924         0         1
     17926     17925     17927         0         1
     17929     17928     17930         0         1
     17932     17931     17933         0         1
     17935     17934     17936         0         1
     17938     17937     17939         0         1
     17941     17940     17942         0         1
     17944     17943     17945         0         1
     17947     17946     17948         0         1
     17950     17949     17951         0         1
     17953     17952     17954         0         1
     17956     17955     17957         0         1
     17959     17958     17960         0         1
     17962     17961     17963         0         1
     17965     17964     17966         0         1
     17968     17967     17969         0         1
     17971     17970     17972         0         1
     17974     17973     17975         0         1
     17977     17976     17978         0         1
     17980     17979     17981         0         1
     17983     17982     17984         0         1
     17986     17985     17987         0         1
     17989     17988     17990         0         1
     17992     17991     17993         0         1
     17995     17994     17996         0         1
     17998     17997     17999         0         1
     18001     18000     18002         0         1
     18004     18003     18005         0         1
     18007     18006     18008         0         1
     18010     18009     18011         0         1
     18013     18012     18014         0         1
     18016     18015     18017         0         1
     18019     18018     18020         0         1
     18022     18021     18023         0         1
     18025     18024     18026         0         1
     18028     18027     18029         0         1
     18031     18030     18032         0         1
     18034     18033     18035         0         1
     18037     18036     18038         0         1
     18040     18039     18041         0         1
     18043     18042     18044         0         1
     18046     18045     18047         0         1
     18049     18048     18050         0         1
     18052     18051     18053         0         1
     18055     18054     18056         0         1
     18058     18057     18059         0         1
     18061     18060     18062         0         1
     18064     18063     18065         0         1
     18067     18066     18068         0         1
     18070     18069     18071         0         1
     18073     18072     18074         0         1
     18076     18075     18077         0         1
     18079     18078     18080         0         1
     18082     18081     18083         0         1
     18085     18084     18086         0         1
     18088     18087     18089         0         1
     18091     18090     18092         0         1
     18094     18093     18095         0         1
     18097     18096     18098         0         1
     18100     18099     18101         0         1
     18103     18102     18104         0         1
     18106     18105     18107         0         1
     18109     18108     18110         0         1
     18112     18111     18113         0         1
     18115     18114     18116         0         1
     18118     18117     18119         0         1
     18121     18120     18122         0         1
     18124     18123     18125         0         1
     18127     18126     18128         0         1
     18130     18129     18131         0         1
     18133     18132     18134         0         1
     18136     18135     18137         0         1
     18139     18138     18140         0         1
     18142     18141     18143         0         1
     18145     18144     18146         0         1
     18148     18147     18149         0         1
     18151     18150     18152         0         1
     18154     18153     18155         0         1
     18157     18156     18158         0         1
     18160     18159     18161         0         1
     18163     18162     18164         0         1
     18166     18165     18167         0         1
     18169     18168     18170         0         1
     18172     18171     18173         0         1
     18175     18174     18176         0         1
     18178     18177     18179         0         1
     18181     18180     18182         0         1
     18184     18183     18185         0         1
     18187     18186     18188         0         1
     18190     18189     18191         0         1
     18193     18192     18194         0         1
     18196     18195     18197         0         1
     18199     18198     18200         0         1
     18202     18201     18203         0         1
     18205     18204     18206         0         1
     18208     18207     18209         0         1
     18211     18210     18212         0         1
     18214     18213     18215         0         1
     18217     18216     18218         0         1
     18220     18219     18221         0         1
     18223     18222     18224         0         1
     18226     18225     18227         0         1
     18229     18228     18230         0         1
     18232     18231     18233         0         1
     18235     18234     18236         0         1
     18238     18237     18239         0         1
     18241     18240     18242         0         1
     18244     18243     18245         0         1
     18247     18246     18248         0         1
     18250     18249     18251         0         1
     18253     18252     18254         0         1
     18256     18255     18257         0         1
     18259     18258     18260         0         1
     18262     18261     18263         0         1
     18265     18264     18266         0         1
     18268     18267     18269         0         1
     18271     18270     18272         0         1
     18274     18273     18275         0         1
     18277     18276     18278         0         1
     18280     18279     18281         0         1
     18283     18282     18284         0         1
     18286     18285     18287         0         1
     18289     18288     18290         0         1
     18292     18291     18293         0         1
     18295     18294     18296         0         1
     18298     18297     18299         0         1
     18301     18300     18302         0         1
     18304     18303     18305         0         1
     18307     18306     18308         0         1
     18310     18309     18311         0         1
     18313     18312     18314         0         1
     18316     18315     18317         0         1
     18319     18318     18320         0         1
     18322     18321     18323         0         1
     18325     18324     18326         0         1
     18328     18327     18329         0         1
     18331     18330     18332         0         1
     18334     18333     18335         0         1
     18337     18336     18338         0         1
     18340     18339     18341         0         1
     18343     18342     18344         0         1
     18346     18345     18347         0         1
     18349     18348     18350         0         1
     18352     18351     18353         0         1
     18355     18354     18356         0         1
     18358     18357     18359         0         1
     18361     18360     18362         0         1
     18364     18363     18365         0         1
     18367     18366     18368         0         1
     18370     18369     18371         0         1
     18373     18372     18374         0         1
     18376     18375     18377         0         1
     18379     18378     18380         0         1
     18382     18381     18383         0         1
     18385     18384     18386         0         1
     18388     18387     18389         0         1
     18391     18390     18392         0         1
     18394     18393     18395         0         1
     18397     18396     18398         0         1
     18400     18399     18401         0         1
     18403     18402     18404         0         1
     18406     18405     18407         0         1
     18409     18408     18410         0         1
     18412     18411     18413         0         1
     18415     18414     18416         0         1
     18418     18417     18419         0         1
     18421     18420     18422         0         1
     18424     18423     18425         0         1
     18427     18426     18428         0         1
     18430     18429     18431         0         1
     18433     18432     18434         0         1
     18436     18435     18437         0         1
     18439     18438     18440         0         1
     18442     18441     18443         0         1
     18445     18444     18446         0         1
     18448     18447     18449         0         1
     18451     18450     18452         0         1
     18454     18453     18455         0         1
     18457     18456     18458         0         1
     18460     18459     18461         0         1
     18463     18462     18464         0         1
     18466     18465     18467         0         1
     18469     18468     18470         0         1
     18472     18471     18473         0         1
     18475     18474     18476         0         1
     18478     18477     18479         0         1
     18481     18480     18482         0         1
     18484     18483     18485         0         1
     18487     18486     18488         0         1
     18490     18489     18491         0         1
     18493     18492     18494         0         1
     18496     18495     18497         0         1
     18499     18498     18500         0         1
     18502     18501     18503         0         1
     18505     18504     18506         0         1
     18508     18507     18509         0         1
     18511     18510     18512         0         1
     18514     18513     18515         0         1
     18517     18516     18518         0         1
     18520     18519     18521         0         1
     18523     18522     18524         0         1
     18526     18525     18527         0         1
     18529     18528     18530         0         1
     18532     18531     18533         0         1
     18535     18534     18536         0         1
     18538     18537     18539         0         1
     18541     18540     18542         0         1
     18544     18543     18545         0         1
     18547     18546     18548         0         1
     18550     18549     18551         0         1
     18553     18552     18554         0         1
     18556     18555     18557         0         1
     18559     18558     18560         0         1
     18562     18561     18563         0         1
     18565     18564     18566         0         1
     18568     18567     18569         0         1
     18571     18570     18572         0         1
     18574     18573     18575         0         1
     18577     18576     18578         0         1
     18580     18579     18581         0         1
     18583     18582     18584         0         1
     18586     18585     18587         0         1
     18589     18588     18590         0         1
     18592     18591     18593         0         1
     18595     18594     18596         0         1
     18598     18597     18599         0         1
     18601     18600     18602         0         1
     18604     18603     18605         0         1
     18607     18606     18608         0         1
     18610     18609     18611         0         1
     18613     18612     18614         0         1
     18616     18615     18617         0         1
     18619     18618     18620         0         1
     18622     18621     18623         0         1
     18625     18624     18626         0         1
     18628     18627     18629         0         1
     18631     18630     18632         0         1
     18634     18633     18635         0         1
     18637     18636     18638         0         1
     18640     18639     18641         0         1
     18643     18642     18644         0         1
     18646     18645     18647         0         1
     18649     18648     18650         0         1
     18652     18651     18653         0         1
     18655     18654     18656         0         1
     18658     18657     18659         0         1
     18661     18660     18662         0         1
     18664     18663     18665         0         1
     18667     18666     18668         0         1
     18670     18669     18671         0         1
     18673     18672     18674         0         1
     18676     18675     18677         0         1
     18679     18678     18680         0         1
     18682     18681     18683         0         1
     18685     18684     18686         0         1
     18688     18687     18689         0         1
     18691     18690     18692         0         1
     18694     18693     18695         0         1
     18697     18696     18698         0         1
     18700     18699     18701         0         1
     18703     18702     18704         0         1
     18706     18705     18707         0         1
     18709     18708     18710         0         1
     18712     18711     18713         0         1
     18715     18714     18716         0         1
     18718     18717     18719         0         1
     18721     18720     18722         0         1
     18724     18723     18725         0         1
     18727     18726     18728         0         1
     18730     18729     18731         0         1
     18733     18732     18734         0         1
     18736     18735     18737         0         1
     18739     18738     18740         0         1
     18742     18741     18743         0         1
     18745     18744     18746         0         1
     18748     18747     18749         0         1
     18751     18750     18752         0         1
     18754     18753     18755         0         1
     18757     18756     18758         0         1
     18760     18759     18761         0         1
     18763     18762     18764         0         1
     18766     18765     18767         0         1
     18769     18768     18770         0         1
     18772     18771     18773         0         1
     18775     18774     18776         0         1
     18778     18777     18779         0         1
     18781     18780     18782         0         1
     18784     18783     18785         0         1
     18787     18786     18788         0         1
     18790     18789     18791         0         1
     18793     18792     18794         0         1
     18796     18795     18797         0         1
     18799     18798     18800         0         1
     18802     18801     18803         0         1
     18805     18804     18806         0         1
     18808     18807     18809         0         1
     18811     18810     18812         0         1
     18814     18813     18815         0         1
     18817     18816     18818         0         1
     18820     18819     18821         0         1
     18823     18822     18824         0         1
     18826     18825     18827         0         1
     18829     18828     18830         0         1
     18832     18831     18833         0         1
     18835     18834     18836         0         1
     18838     18837     18839         0         1
     18841     18840     18842         0         1
     18844     18843     18845         0         1
     18847     18846     18848         0         1
     18850     18849     18851         0         1
     18853     18852     18854         0         1
     18856     18855     18857         0         1
     18859     18858     18860         0         1
     18862     18861     18863         0         1
     18865     18864     18866         0         1
     18868     18867     18869         0         1
     18871     18870     18872         0         1
     18874     18873     18875         0         1
     18877     18876     18878         0         1
     18880     18879     18881         0         1
     18883     18882     18884         0         1
     18886     18885     18887         0         1
     18889     18888     18890         0         1
     18892     18891     18893         0         1
     18895     18894     18896         0         1
     18898     18897     18899         0         1
     18901     18900     18902         0         1
     18904     18903     18905         0         1
     18907     18906     18908         0         1
     18910     18909     18911         0         1
     18913     18912     18914         0         1
     18916     18915     18917         0         1
     18919     18918     18920         0         1
     18922     18921     18923         0         1
     18925     18924     18926         0         1
     18928     18927     18929         0         1
     18931     18930     18932         0         1
     18934     18933     18935         0         1
     18937     18936     18938         0         1
     18940     18939     18941         0         1
     18943     18942     18944         0         1
     18946     18945     18947         0         1
     18949     18948     18950         0         1
     18952     18951     18953         0         1
     18955     18954     18956         0         1
     18958     18957     18959         0         1
     18961     18960     18962         0         1
     18964     18963     18965         0         1
     18967     18966     18968         0         1
     18970     18969     18971         0         1
     18973     18972     18974         0         1
     18976     18975     18977         0         1
     18979     18978     18980         0         1
     18982     18981     18983         0         1
     18985     18984     18986         0         1
     18988     18987     18989         0         1
     18991     18990     18992         0         1
     18994     18993     18995         0         1
     18997     18996     18998         0         1
     19000     18999     19001         0         1
     19003     19002     19004         0         1
     19006     19005     19007         0         1
     19009     19008     19010         0         1
     19012     19011     19013         0         1
     19015     19014     19016         0         1
     19018     19017     19019         0         1
     19021     19020     19022         0         1
     19024     19023     19025         0         1
     19027     19026     19028         0         1
     19030     19029     19031         0         1
     19033     19032     19034         0         1
     19036     19035     19037         0         1
     19039     19038     19040         0         1
     19042     19041     19043         0         1
     19045     19044     19046         0         1
     19048     19047     19049         0         1
     19051     19050     19052         0         1
     19054     19053     19055         0         1
     19057     19056     19058         0         1
     19060     19059     19061         0         1
     19063     19062     19064         0         1
     19066     19065     19067         0         1
     19069     19068     19070         0         1
     19072     19071     19073         0         1
     19075     19074     19076         0         1
     19078     19077     19079         0         1
     19081     19080     19082         0         1
     19084     19083     19085         0         1
     19087     19086     19088         0         1
     19090     19089     19091         0         1
     19093     19092     19094         0         1
     19096     19095     19097         0         1
     19099     19098     19100         0         1
     19102     19101     19103         0         1
     19105     19104     19106         0         1
     19108     19107     19109         0         1
     19111     19110     19112         0         1
     19114     19113     19115         0         1
     19117     19116     19118         0         1
     19120     19119     19121         0         1
     19123     19122     19124         0         1
     19126     19125     19127         0         1
     19129     19128     19130         0         1
     19132     19131     19133         0         1
     19135     19134     19136         0         1
     19138     19137     19139         0         1
     19141     19140     19142         0         1
     19144     19143     19145         0         1
     19147     19146     19148         0         1
     19150     19149     19151         0         1
     19153     19152     19154         0         1
     19156     19155     19157         0         1
     19159     19158     19160         0         1
     19162     19161     19163         0         1
     19165     19164     19166         0         1
     19168     19167     19169         0         1
     19171     19170     19172         0         1
     19174     19173     19175         0         1
     19177     19176     19178         0         1
     19180     19179     19181         0         1
     19183     19182     19184         0         1
     19186     19185     19187         0         1
     19189     19188     19190         0         1
     19192     19191     19193         0         1
     19195     19194     19196         0         1
     19198     19197     19199         0         1
     19201     19200     19202         0         1
     19204     19203     19205         0         1
     19207     19206     19208         0         1
     19210     19209     19211         0         1
     19213     19212     19214         0         1
     19216     19215     19217         0         1
     19219     19218     19220         0         1
     19222     19221     19223         0         1
     19225     19224     19226         0         1
     19228     19227     19229         0         1
     19231     19230     19232         0         1
     19234     19233     19235         0         1
     19237     19236     19238         0         1
     19240     19239     19241         0         1
     19243     19242     19244         0         1
     19246     19245     19247         0         1
     19249     19248     19250         0         1
     19252     19251     19253         0         1
     19255     19254     19256         0         1
     19258     19257     19259         0         1
     19261     19260     19262         0         1
     19264     19263     19265         0         1
     19267     19266     19268         0         1
     19270     19269     19271         0         1
     19273     19272     19274         0         1
     19276     19275     19277         0         1
     19279     19278     19280         0         1
     19282     19281     19283         0         1
     19285     19284     19286         0         1
     19288     19287     19289         0         1
     19291     19290     19292         0         1
     19294     19293     19295         0         1
     19297     19296     19298         0         1
     19300     19299     19301         0         1
     19303     19302     19304         0         1
     19306     19305     19307         0         1
     19309     19308     19310         0         1
     19312     19311     19313         0         1
     19315     19314     19316         0         1
     19318     19317     19319         0         1
     19321     19320     19322         0         1
     19324     19323     19325         0         1
     19327     19326     19328         0         1
     19330     19329     19331         0         1
     19333     19332     19334         0         1
     19336     19335     19337         0         1
     19339     19338     19340         0         1
     19342     19341     19343         0         1
     19345     19344     19346         0         1
     19348     19347     19349         0         1
     19351     19350     19352         0         1
     19354     19353     19355         0         1
     19357     19356     19358         0         1
     19360     19359     19361         0         1
     19363     19362     19364         0         1
     19366     19365     19367         0         1
     19369     19368     19370         0         1
     19372     19371     19373         0         1
     19375     19374     19376         0         1
     19378     19377     19379         0         1
     19381     19380     19382         0         1
     19384     19383     19385         0         1
     19387     19386     19388         0         1
     19390     19389     19391         0         1
     19393     19392     19394         0         1
     19396     19395     19397         0         1
     19399     19398     19400         0         1
     19402     19401     19403         0         1
     19405     19404     19406         0         1
     19408     19407     19409         0         1
     19411     19410     19412         0         1
     19414     19413     19415         0         1
     19417     19416     19418         0         1
     19420     19419     19421         0         1
     19423     19422     19424         0         1
     19426     19425     19427         0         1
     19429     19428     19430         0         1
     19432     19431     19433         0         1
     19435     19434     19436         0         1
     19438     19437     19439         0         1
     19441     19440     19442         0         1
     19444     19443     19445         0         1
     19447     19446     19448         0         1
     19450     19449     19451         0         1
     19453     19452     19454         0         1
     19456     19455     19457         0         1
     19459     19458     19460         0         1
     19462     19461     19463         0         1
     19465     19464     19466         0         1
     19468     19467     19469         0         1
     19471     19470     19472         0         1
     19474     19473     19475         0         1
     19477     19476     19478         0         1
     19480     19479     19481         0         1
     19483     19482     19484         0         1
     19486     19485     19487         0         1
     19489     19488     19490         0         1
     19492     19491     19493         0         1
     19495     19494     19496         0         1
     19498     19497     19499         0         1
     19501     19500     19502         0         1
     19504     19503     19505         0         1
     19507     19506     19508         0         1
     19510     19509     19511         0         1
     19513     19512     19514         0         1
     19516     19515     19517         0         1
     19519     19518     19520         0         1
     19522     19521     19523         0         1
     19525     19524     19526         0         1
     19528     19527     19529         0         1
     19531     19530     19532         0         1
     19534     19533     19535         0         1
     19537     19536     19538         0         1
     19540     19539     19541         0         1
     19543     19542     19544         0         1
     19546     19545     19547         0         1
     19549     19548     19550         0         1
     19552     19551     19553         0         1
     19555     19554     19556         0         1
     19558     19557     19559         0         1
     19561     19560     19562         0         1
     19564     19563     19565         0         1
     19567     19566     19568         0         1
     19570     19569     19571         0         1
     19573     19572     19574         0         1
     19576     19575     19577         0         1
     19579     19578     19580         0         1
     19582     19581     19583         0         1
     19585     19584     19586         0         1
     19588     19587     19589         0         1
     19591     19590     19592         0         1
     19594     19593     19595         0         1
     19597     19596     19598         0         1
     19600     19599     19601         0         1
     19603     19602     19604         0         1
     19606     19605     19607         0         1
     19609     19608     19610         0         1
     19612     19611     19613         0         1
     19615     19614     19616         0         1
     19618     19617     19619         0         1
     19621     19620     19622         0         1
     19624     19623     19625         0         1
     19627     19626     19628         0         1
     19630     19629     19631         0         1
     19633     19632     19634         0         1
     19636     19635     19637         0         1
     19639     19638     19640         0         1
     19642     19641     19643         0         1
     19645     19644     19646         0         1
     19648     19647     19649         0         1
     19651     19650     19652         0         1
     19654     19653     19655         0         1
     19657     19656     19658         0         1
     19660     19659     19661         0         1
     19663     19662     19664         0         1
     19666     19665     19667         0         1
     19669     19668     19670         0         1
     19672     19671     19673         0         1
     19675     19674     19676         0         1
     19678     19677     19679         0         1
     19681     19680     19682         0         1
     19684     19683     19685         0         1
     19687     19686     19688         0         1
     19690     19689     19691         0         1
     19693     19692     19694         0         1
     19696     19695     19697         0         1
     19699     19698     19700         0         1
     19702     19701     19703         0         1
     19705     19704     19706         0         1
     19708     19707     19709         0         1
     19711     19710     19712         0         1
     19714     19713     19715         0         1
     19717     19716     19718         0         1
     19720     19719     19721         0         1
     19723     19722     19724         0         1
     19726     19725     19727         0         1
     19729     19728     19730         0         1
     19732     19731     19733         0         1
     19735     19734     19736         0         1
     19738     19737     19739         0         1
     19741     19740     19742         0         1
     19744     19743     19745         0         1
     19747     19746     19748         0         1
     19750     19749     19751         0         1
     19753     19752     19754         0         1
     19756     19755     19757         0         1
     19759     19758     19760         0         1
     19762     19761     19763         0         1
     19765     19764     19766         0         1
     19768     19767     19769         0         1
     19771     19770     19772         0         1
     19774     19773     19775         0         1
     19777     19776     19778         0         1
     19780     19779     19781         0         1
     19783     19782     19784         0         1
     19786     19785     19787         0         1
     19789     19788     19790         0         1
     19792     19791     19793         0         1
     19795     19794     19796         0         1
     19798     19797     19799         0         1
     19801     19800     19802         0         1
     19804     19803     19805         0         1
     19807     19806     19808         0         1
     19810     19809     19811         0         1
     19813     19812     19814         0         1
     19816     19815     19817         0         1
     19819     19818     19820         0         1
     19822     19821     19823         0         1
     19825     19824     19826         0         1
     19828     19827     19829         0         1
     19831     19830     19832         0         1
     19834     19833     19835         0         1
     19837     19836     19838         0         1
     19840     19839     19841         0         1
     19843     19842     19844         0         1
     19846     19845     19847         0         1
     19849     19848     19850         0         1
     19852     19851     19853         0         1
     19855     19854     19856         0         1
     19858     19857     19859         0         1
     19861     19860     19862         0         1
     19864     19863     19865         0         1
     19867     19866     19868         0         1
     19870     19869     19871         0         1
     19873     19872     19874         0         1
     19876     19875     19877         0         1
     19879     19878     19880         0         1
     19882     19881     19883         0         1
     19885     19884     19886         0         1
     19888     19887     19889         0         1
     19891     19890     19892         0         1
     19894     19893     19895         0         1
     19897     19896     19898         0         1
     19900     19899     19901         0         1
     19903     19902     19904         0         1
     19906     19905     19907         0         1
     19909     19908     19910         0         1
     19912     19911     19913         0         1
     19915     19914     19916         0         1
     19918     19917     19919         0         1
     19921     19920     19922         0         1
     19924     19923     19925         0         1
     19927     19926     19928         0         1
     19930     19929     19931         0         1
     19933     19932     19934         0         1
     19936     19935     19937         0         1
     19939     19938     19940         0         1
     19942     19941     19943         0         1
     19945     19944     19946         0         1
     19948     19947     19949         0         1
     19951     19950     19952         0         1
     19954     19953     19955         0         1
     19957     19956     19958         0         1
     19960     19959     19961         0         1
     19963     19962     19964         0         1
     19966     19965     19967         0         1
     19969     19968     19970         0         1
     19972     19971     19973         0         1
     19975     19974     19976         0         1
     19978     19977     19979         0         1
     19981     19980     19982         0         1
     19984     19983     19985         0         1
     19987     19986     19988         0         1
     19990     19989     19991         0         1
     19993     19992     19994         0         1
     19996     19995     19997         0         1
     19999     19998     20000         0         1
     20002     20001     20003         0         1
     20005     20004     20006         0         1
     20008     20007     20009         0         1
     20011     20010     20012         0         1
     20014     20013     20015         0         1
     20017     20016     20018         0         1
     20020     20019     20021         0         1
     20023     20022     20024         0         1
     20026     20025     20027         0         1
     20029     20028     20030         0         1
     20032     20031     20033         0         1
     20035     20034     20036         0         1
     20038     20037     20039         0         1
     20041     20040     20042         0         1
     20044     20043     20045         0         1
     20047     20046     20048         0         1
     20050     20049     20051         0         1
     20053     20052     20054         0         1
     20056     20055     20057         0         1
     20059     20058     20060         0         1
     20062     20061     20063         0         1
     20065     20064     20066         0         1
     20068     20067     20069         0         1
     20071     20070     20072         0         1
     20074     20073     20075         0         1
     20077     20076     20078         0         1
     20080     20079     20081         0         1
     20083     20082     20084         0         1
     20086     20085     20087         0         1
     20089     20088     20090         0         1
     20092     20091     20093         0         1
     20095     20094     20096         0         1
     20098     20097     20099         0         1
     20101     20100     20102         0         1
     20104     20103     20105         0         1
     20107     20106     20108         0         1
     20110     20109     20111         0         1
     20113     20112     20114         0         1
     20116     20115     20117         0         1
     20119     20118     20120         0         1
     20122     20121     20123         0         1
     20125     20124     20126         0         1
     20128     20127     20129         0         1
     20131     20130     20132         0         1
     20134     20133     20135         0         1
     20137     20136     20138         0         1
     20140     20139     20141         0         1
     20143     20142     20144         0         1
     20146     20145     20147         0         1
     20149     20148     20150         0         1
     20152     20151     20153         0         1
     20155     20154     20156         0         1
     20158     20157     20159         0         1
     20161     20160     20162         0         1
     20164     20163     20165         0         1
     20167     20166     20168         0         1
     20170     20169     20171         0         1
     20173     20172     20174         0         1
     20176     20175     20177         0         1
     20179     20178     20180         0         1
     20182     20181     20183         0         1
     20185     20184     20186         0         1
     20188     20187     20189         0         1
     20191     20190     20192         0         1
     20194     20193     20195         0         1
     20197     20196     20198         0         1
     20200     20199     20201         0         1
     20203     20202     20204         0         1
     20206     20205     20207         0         1
     20209     20208     20210         0         1
     20212     20211     20213         0         1
     20215     20214     20216         0         1
     20218     20217     20219         0         1
     20221     20220     20222         0         1
     20224     20223     20225         0         1
     20227     20226     20228         0         1
     20230     20229     20231         0         1
     20233     20232     20234         0         1
     20236     20235     20237         0         1
     20239     20238     20240         0         1
     20242     20241     20243         0         1
     20245     20244     20246         0         1
     20248     20247     20249         0         1
     20251     20250     20252         0         1
     20254     20253     20255         0         1
     20257     20256     20258         0         1
     20260     20259     20261         0         1
     20263     20262     20264         0         1
     20266     20265     20267         0         1
     20269     20268     20270         0         1
     20272     20271     20273         0         1
     20275     20274     20276         0         1
     20278     20277     20279         0         1
     20281     20280     20282         0         1
     20284     20283     20285         0         1
     20287     20286     20288         0         1
     20290     20289     20291         0         1
     20293     20292     20294         0         1
     20296     20295     20297         0         1
     20299     20298     20300         0         1
     20302     20301     20303         0         1
     20305     20304     20306         0         1
     20308     20307     20309         0         1
     20311     20310     20312         0         1
     20314     20313     20315         0         1
     20317     20316     20318         0         1
     20320     20319     20321         0         1
     20323     20322     20324         0         1
     20326     20325     20327         0         1
     20329     20328     20330         0         1
     20332     20331     20333         0         1
     20335     20334     20336         0         1
     20338     20337     20339         0         1
     20341     20340     20342         0         1
     20344     20343     20345         0         1
     20347     20346     20348         0         1
     20350     20349     20351         0         1
     20353     20352     20354         0         1
     20356     20355     20357         0         1
     20359     20358     20360         0         1
     20362     20361     20363         0         1
     20365     20364     20366         0         1
     20368     20367     20369         0         1
     20371     20370     20372         0         1
     20374     20373     20375         0         1
     20377     20376     20378         0         1
     20380     20379     20381         0         1
     20383     20382     20384         0         1
     20386     20385     20387         0         1
     20389     20388     20390         0         1
     20392     20391     20393         0         1
     20395     20394     20396         0         1
     20398     20397     20399         0         1
     20401     20400     20402         0         1
     20404     20403     20405         0         1
     20407     20406     20408         0         1
     20410     20409     20411         0         1
     20413     20412     20414         0         1
     20416     20415     20417         0         1
     20419     20418     20420         0         1
     20422     20421     20423         0         1
     20425     20424     20426         0         1
     20428     20427     20429         0         1
     20431     20430     20432         0         1
     20434     20433     20435         0         1
     20437     20436     20438         0         1
     20440     20439     20441         0         1
     20443     20442     20444         0         1
     20446     20445     20447         0         1
     20449     20448     20450         0         1
     20452     20451     20453         0         1
     20455     20454     20456         0         1
     20458     20457     20459         0         1
     20461     20460     20462         0         1
     20464     20463     20465         0         1
     20467     20466     20468         0         1
     20470     20469     20471         0         1
     20473     20472     20474         0         1
     20476     20475     20477         0         1
     20479     20478     20480         0         1
     20482     20481     20483         0         1
     20485     20484     20486         0         1
     20488     20487     20489         0         1
     20491     20490     20492         0         1
     20494     20493     20495         0         1
     20497     20496     20498         0         1
     20500     20499     20501         0         1
     20503     20502     20504         0         1
     20506     20505     20507         0         1
     20509     20508     20510         0         1
     20512     20511     20513         0         1
     20515     20514     20516         0         1
     20518     20517     20519         0         1
     20521     20520     20522         0         1
     20524     20523     20525         0         1
     20527     20526     20528         0         1
     20530     20529     20531         0         1
     20533     20532     20534         0         1
     20536     20535     20537         0         1
     20539     20538     20540         0         1
     20542     20541     20543         0         1
     20545     20544     20546         0         1
     20548     20547     20549         0         1
     20551     20550     20552         0         1
     20554     20553     20555         0         1
     20557     20556     20558         0         1
     20560     20559     20561         0         1
     20563     20562     20564         0         1
     20566     20565     20567         0         1
     20569     20568     20570         0         1
     20572     20571     20573         0         1
     20575     20574     20576         0         1
     20578     20577     20579         0         1
     20581     20580     20582         0         1
     20584     20583     20585         0         1
     20587     20586     20588         0         1
     20590     20589     20591         0         1
     20593     20592     20594         0         1
     20596     20595     20597         0         1
     20599     20598     20600         0         1
     20602     20601     20603         0         1
     20605     20604     20606         0         1
     20608     20607     20609         0         1
     20611     20610     20612         0         1
     20614     20613     20615         0         1
     20617     20616     20618         0         1
     20620     20619     20621         0         1
     20623     20622     20624         0         1
     20626     20625     20627         0         1
     20629     20628     20630         0         1
     20632     20631     20633         0         1
     20635     20634     20636         0         1
     20638     20637     20639         0         1
     20641     20640     20642         0         1
     20644     20643     20645         0         1
     20647     20646     20648         0         1
     20650     20649     20651         0         1
     20653     20652     20654         0         1
     20656     20655     20657         0         1
     20659     20658     20660         0         1
     20662     20661     20663         0         1
     20665     20664     20666         0         1
     20668     20667     20669         0         1
     20671     20670     20672         0         1
     20674     20673     20675         0         1
     20677     20676     20678         0         1
     20680     20679     20681         0         1
     20683     20682     20684         0         1
     20686     20685     20687         0         1
     20689     20688     20690         0         1
     20692     20691     20693         0         1
     20695     20694     20696         0         1
     20698     20697     20699         0         1
     20701     20700     20702         0         1
     20704     20703     20705         0         1
     20707     20706     20708         0         1
     20710     20709     20711         0         1
     20713     20712     20714         0         1
     20716     20715     20717         0         1
     20719     20718     20720         0         1
     20722     20721     20723         0         1
     20725     20724     20726         0         1
     20728     20727     20729         0         1
     20731     20730     20732         0         1
     20734     20733     20735         0         1
     20737     20736     20738         0         1
     20740     20739     20741         0         1
     20743     20742     20744         0         1
     20746     20745     20747         0         1
     20749     20748     20750         0         1
     20752     20751     20753         0         1
     20755     20754     20756         0         1
     20758     20757     20759         0         1
     20761     20760     20762         0         1
     20764     20763     20765         0         1
     20767     20766     20768         0         1
     20770     20769     20771         0         1
     20773     20772     20774         0         1
     20776     20775     20777         0         1
     20779     20778     20780         0         1
     20782     20781     20783         0         1
     20785     20784     20786         0         1
     20788     20787     20789         0         1
     20791     20790     20792         0         1
     20794     20793     20795         0         1
     20797     20796     20798         0         1
     20800     20799     20801         0         1
     20803     20802     20804         0         1
     20806     20805     20807         0         1
     20809     20808     20810         0         1
     20812     20811     20813         0         1
     20815     20814     20816         0         1
     20818     20817     20819         0         1
     20821     20820     20822         0         1
     20824     20823     20825         0         1
     20827     20826     20828         0         1
     20830     20829     20831         0         1
     20833     20832     20834         0         1
     20836     20835     20837         0         1
     20839     20838     20840         0         1
     20842     20841     20843         0         1
     20845     20844     20846         0         1
     20848     20847     20849         0         1
     20851     20850     20852         0         1
     20854     20853     20855         0         1
     20857     20856     20858         0         1
     20860     20859     20861         0         1
     20863     20862     20864         0         1
     20866     20865     20867         0         1
     20869     20868     20870         0         1
     20872     20871     20873         0         1
     20875     20874     20876         0         1
     20878     20877     20879         0         1
     20881     20880     20882         0         1
     20884     20883     20885         0         1
     20887     20886     20888         0         1
     20890     20889     20891         0         1
     20893     20892     20894         0         1
     20896     20895     20897         0         1
     20899     20898     20900         0         1
     20902     20901     20903         0         1
     20905     20904     20906         0         1
     20908     20907     20909         0         1
     20911     20910     20912         0         1
     20914     20913     20915         0         1
     20917     20916     20918         0         1
     20920     20919     20921         0         1
     20923     20922     20924         0         1
     20926     20925     20927         0         1
     20929     20928     20930         0         1
     20932     20931     20933         0         1
     20935     20934     20936         0         1
     20938     20937     20939         0         1
     20941     20940     20942         0         1
     20944     20943     20945         0         1
     20947     20946     20948         0         1
     20950     20949     20951         0         1
     20953     20952     20954         0         1
     20956     20955     20957         0         1
     20959     20958     20960         0         1
     20962     20961     20963         0         1
     20965     20964     20966         0         1
     20968     20967     20969         0         1
     20971     20970     20972         0         1
     20974     20973     20975         0         1
     20977     20976     20978         0         1
     20980     20979     20981         0         1
     20983     20982     20984         0         1
     20986     20985     20987         0         1
     20989     20988     20990         0         1
     20992     20991     20993         0         1
     20995     20994     20996         0         1
     20998     20997     20999         0         1
     21001     21000     21002         0         1
     21004     21003     21005         0         1
     21007     21006     21008         0         1
     21010     21009     21011         0         1
     21013     21012     21014         0         1
     21016     21015     21017         0         1
     21019     21018     21020         0         1
     21022     21021     21023         0         1
     21025     21024     21026         0         1
     21028     21027     21029         0         1
     21031     21030     21032         0         1
     21034     21033     21035         0         1
     21037     21036     21038         0         1
     21040     21039     21041         0         1
     21043     21042     21044         0         1
     21046     21045     21047         0         1
     21049     21048     21050         0         1
     21052     21051     21053         0         1
     21055     21054     21056         0         1
     21058     21057     21059         0         1
     21061     21060     21062         0         1
     21064     21063     21065         0         1
     21067     21066     21068         0         1
     21070     21069     21071         0         1
     21073     21072     21074         0         1
     21076     21075     21077         0         1
     21079     21078     21080         0         1
     21082     21081     21083         0         1
     21085     21084     21086         0         1
     21088     21087     21089         0         1
     21091     21090     21092         0         1
     21094     21093     21095         0         1
     21097     21096     21098         0         1
     21100     21099     21101         0         1
     21103     21102     21104         0         1
     21106     21105     21107         0         1
     21109     21108     21110         0         1
     21112     21111     21113         0         1
     21115     21114     21116         0         1
     21118     21117     21119         0         1
     21121     21120     21122         0         1
     21124     21123     21125         0         1
     21127     21126     21128         0         1
     21130     21129     21131         0         1
     21133     21132     21134         0         1
     21136     21135     21137         0         1
     21139     21138     21140         0         1
     21142     21141     21143         0         1
     21145     21144     21146         0         1
     21148     21147     21149         0         1
     21151     21150     21152         0         1
     21154     21153     21155         0         1
     21157     21156     21158         0         1
     21160     21159     21161         0         1
     21163     21162     21164         0         1
     21166     21165     21167         0         1
     21169     21168     21170         0         1
     21172     21171     21173         0         1
     21175     21174     21176         0         1
     21178     21177     21179         0         1
     21181     21180     21182         0         1
     21184     21183     21185         0         1
     21187     21186     21188         0         1
     21190     21189     21191         0         1
     21193     21192     21194         0         1
     21196     21195     21197         0         1
     21199     21198     21200         0         1
     21202     21201     21203         0         1
     21205     21204     21206         0         1
     21208     21207     21209         0         1
     21211     21210     21212         0         1
     21214     21213     21215         0         1
     21217     21216     21218         0         1
     21220     21219     21221         0         1
     21223     21222     21224         0         1
     21226     21225     21227         0         1
     21229     21228     21230         0         1
     21232     21231     21233         0         1
     21235     21234     21236         0         1
     21238     21237     21239         0         1
     21241     21240     21242         0         1
     21244     21243     21245         0         1
     21247     21246     21248         0         1
     21250     21249     21251         0         1
     21253     21252     21254         0         1
     21256     21255     21257         0         1
     21259     21258     21260         0         1
     21262     21261     21263         0         1
     21265     21264     21266         0         1
     21268     21267     21269         0         1
     21271     21270     21272         0         1
     21274     21273     21275         0         1
     21277     21276     21278         0         1
     21280     21279     21281         0         1
     21283     21282     21284         0         1
     21286     21285     21287         0         1
     21289     21288     21290         0         1
     21292     21291     21293         0         1
     21295     21294     21296         0         1
     21298     21297     21299         0         1
     21301     21300     21302         0         1
     21304     21303     21305         0         1
     21307     21306     21308         0         1
     21310     21309     21311         0         1
     21313     21312     21314         0         1
     21316     21315     21317         0         1
     21319     21318     21320         0         1
     21322     21321     21323         0         1
     21325     21324     21326         0         1
     21328     21327     21329         0         1
     21331     21330     21332         0         1
     21334     21333     21335         0         1
     21337     21336     21338         0         1
     21340     21339     21341         0         1
     21343     21342     21344         0         1
     21346     21345     21347         0         1
     21349     21348     21350         0         1
     21352     21351     21353         0         1
     21355     21354     21356         0         1
     21358     21357     21359         0         1
     21361     21360     21362         0         1
     21364     21363     21365         0         1
     21367     21366     21368         0         1
     21370     21369     21371         0         1
     21373     21372     21374         0         1
     21376     21375     21377         0         1
     21379     21378     21380         0         1
     21382     21381     21383         0         1
     21385     21384     21386         0         1
     21388     21387     21389         0         1
     21391     21390     21392         0         1
     21394     21393     21395         0         1
     21397     21396     21398         0         1
     21400     21399     21401         0         1
     21403     21402     21404         0         1
     21406     21405     21407         0         1
     21409     21408     21410         0         1
     21412     21411     21413         0         1
     21415     21414     21416         0         1
     21418     21417     21419         0         1
     21421     21420     21422         0         1
     21424     21423     21425         0         1
     21427     21426     21428         0         1
     21430     21429     21431         0         1
     21433     21432     21434         0         1
     21436     21435     21437         0         1
     21439     21438     21440         0         1
     21442     21441     21443         0         1
     21445     21444     21446         0         1
     21448     21447     21449         0         1
     21451     21450     21452         0         1
     21454     21453     21455         0         1
     21457     21456     21458         0         1
     21460     21459     21461         0         1
     21463     21462     21464         0         1
     21466     21465     21467         0         1
     21469     21468     21470         0         1
     21472     21471     21473         0         1
     21475     21474     21476         0         1
     21478     21477     21479         0         1
     21481     21480     21482         0         1
     21484     21483     21485         0         1
     21487     21486     21488         0         1
     21490     21489     21491         0         1
     21493     21492     21494         0         1
     21496     21495     21497         0         1
     21499     21498     21500         0         1
     21502     21501     21503         0         1
     21505     21504     21506         0         1
     21508     21507     21509         0         1
     21511     21510     21512         0         1
     21514     21513     21515         0         1
     21517     21516     21518         0         1
     21520     21519     21521         0         1
     21523     21522     21524         0         1
     21526     21525     21527         0         1
     21529     21528     21530         0         1
     21532     21531     21533         0         1
     21535     21534     21536         0         1
     21538     21537     21539         0         1
     21541     21540     21542         0         1
     21544     21543     21545         0         1
     21547     21546     21548         0         1
     21550     21549     21551         0         1
     21553     21552     21554         0         1
     21556     21555     21557         0         1
     21559     21558     21560         0         1
     21562     21561     21563         0         1
     21565     21564     21566         0         1
     21568     21567     21569         0         1
     21571     21570     21572         0         1
     21574     21573     21575         0         1
     21577     21576     21578         0         1
     21580     21579     21581         0         1
     21583     21582     21584         0         1
     21586     21585     21587         0         1
     21589     21588     21590         0         1
     21592     21591     21593         0         1
     21595     21594     21596         0         1
     21598     21597     21599         0         1
     21601     21600     21602         0         1
     21604     21603     21605         0         1
     21607     21606     21608         0         1
     21610     21609     21611         0         1
     21613     21612     21614         0         1
     21616     21615     21617         0         1
     21619     21618     21620         0         1
     21622     21621     21623         0         1
     21625     21624     21626         0         1
     21628     21627     21629         0         1
     21631     21630     21632         0         1
     21634     21633     21635         0         1
     21637     21636     21638         0         1
     21640     21639     21641         0         1
     21643     21642     21644         0         1
     21646     21645     21647         0         1
     21649     21648     21650         0         1
     21652     21651     21653         0         1
     21655     21654     21656         0         1
     21658     21657     21659         0         1
     21661     21660     21662         0         1
     21664     21663     21665         0         1
     21667     21666     21668         0         1
     21670     21669     21671         0         1
     21673     21672     21674         0         1
     21676     21675     21677         0         1
     21679     21678     21680         0         1
     21682     21681     21683         0         1
     21685     21684     21686         0         1
     21688     21687     21689         0         1
     21691     21690     21692         0         1
     21694     21693     21695         0         1
     21697     21696     21698         0         1
     21700     21699     21701         0         1
     21703     21702     21704         0         1
     21706     21705     21707         0         1
     21709     21708     21710         0         1
     21712     21711     21713         0         1
     21715     21714     21716         0         1
     21718     21717     21719         0         1
     21721     21720     21722         0         1
     21724     21723     21725         0         1
     21727     21726     21728         0         1
     21730     21729     21731         0         1
     21733     21732     21734         0         1
     21736     21735     21737         0         1
     21739     21738     21740         0         1
     21742     21741     21743         0         1
     21745     21744     21746         0         1
     21748     21747     21749         0         1
     21751     21750     21752         0         1
     21754     21753     21755         0         1
     21757     21756     21758         0         1
     21760     21759     21761         0         1
     21763     21762     21764         0         1
     21766     21765     21767         0         1
     21769     21768     21770         0         1
     21772     21771     21773         0         1
     21775     21774     21776         0         1
     21778     21777     21779         0         1
     21781     21780     21782         0         1
     21784     21783     21785         0         1
     21787     21786     21788         0         1
     21790     21789     21791         0         1
     21793     21792     21794         0         1
     21796     21795     21797         0         1
     21799     21798     21800         0         1
     21802     21801     21803         0         1
     21805     21804     21806         0         1
     21808     21807     21809         0         1
     21811     21810     21812         0         1
     21814     21813     21815         0         1
     21817     21816     21818         0         1
     21820     21819     21821         0         1
     21823     21822     21824         0         1
     21826     21825     21827         0         1
     21829     21828     21830         0         1
     21832     21831     21833         0         1
     21835     21834     21836         0         1
     21838     21837     21839         0         1
     21841     21840     21842         0         1
     21844     21843     21845         0         1
     21847     21846     21848         0         1
     21850     21849     21851         0         1
     21853     21852     21854         0         1
     21856     21855     21857         0         1
     21859     21858     21860         0         1
     21862     21861     21863         0         1
     21865     21864     21866         0         1
     21868     21867     21869         0         1
     21871     21870     21872         0         1
     21874     21873     21875         0         1
     21877     21876     21878         0         1
     21880     21879     21881         0         1
     21883     21882     21884         0         1
     21886     21885     21887         0         1
     21889     21888     21890         0         1
     21892     21891     21893         0         1
     21895     21894     21896         0         1
     21898     21897     21899         0         1
     21901     21900     21902         0         1
     21904     21903     21905         0         1
     21907     21906     21908         0         1
     21910     21909     21911         0         1
     21913     21912     21914         0         1
     21916     21915     21917         0         1
     21919     21918     21920         0         1
     21922     21921     21923         0         1
     21925     21924     21926         0         1
     21928     21927     21929         0         1
     21931     21930     21932         0         1
     21934     21933     21935         0         1
     21937     21936     21938         0         1
     21940     21939     21941         0         1
     21943     21942     21944         0         1
     21946     21945     21947         0         1
     21949     21948     21950         0         1
     21952     21951     21953         0         1
     21955     21954     21956         0         1
     21958     21957     21959         0         1
     21961     21960     21962         0         1
     21964     21963     21965         0         1
     21967     21966     21968         0         1
     21970     21969     21971         0         1
     21973     21972     21974         0         1
     21976     21975     21977         0         1
     21979     21978     21980         0         1
     21982     21981     21983         0         1
     21985     21984     21986         0         1
     21988     21987     21989         0         1
     21991     21990     21992         0         1
     21994     21993     21995         0         1
     21997     21996     21998         0         1
     22000     21999     22001         0         1
     22003     22002     22004         0         1
     22006     22005     22007         0         1
     22009     22008     22010         0         1
     22012     22011     22013         0         1
     22015     22014     22016         0         1
     22018     22017     22019         0         1
     22021     22020     22022         0         1
     22024     22023     22025         0         1
     22027     22026     22028         0         1
     22030     22029     22031         0         1
     22033     22032     22034         0         1
     22036     22035     22037         0         1
     22039     22038     22040         0         1
     22042     22041     22043         0         1
     22045     22044     22046         0         1
     22048     22047     22049         0         1
     22051     22050     22052         0         1
     22054     22053     22055         0         1
     22057     22056     22058         0         1
     22060     22059     22061         0         1
     22063     22062     22064         0         1
     22066     22065     22067         0         1
     22069     22068     22070         0         1
     22072     22071     22073         0         1
     22075     22074     22076         0         1
     22078     22077     22079         0         1
     22081     22080     22082         0         1
     22084     22083     22085         0         1
     22087     22086     22088         0         1
     22090     22089     22091         0         1
     22093     22092     22094         0         1
     22096     22095     22097         0         1
     22099     22098     22100         0         1
     22102     22101     22103         0         1
     22105     22104     22106         0         1
     22108     22107     22109         0         1
     22111     22110     22112         0         1
     22114     22113     22115         0         1
     22117     22116     22118         0         1
     22120     22119     22121         0         1
     22123     22122     22124         0         1
     22126     22125     22127         0         1
     22129     22128     22130         0         1
     22132     22131     22133         0         1
     22135     22134     22136         0         1
     22138     22137     22139         0         1
     22141     22140     22142         0         1
     22144     22143     22145         0         1
     22147     22146     22148         0         1
     22150     22149     22151         0         1
     22153     22152     22154         0         1
     22156     22155     22157         0         1
     22159     22158     22160         0         1
     22162     22161     22163         0         1
     22165     22164     22166         0         1
     22168     22167     22169         0         1
     22171     22170     22172         0         1
     22174     22173     22175         0         1
     22177     22176     22178         0         1
     22180     22179     22181         0         1
     22183     22182     22184         0         1
     22186     22185     22187         0         1
     22189     22188     22190         0         1
     22192     22191     22193         0         1
     22195     22194     22196         0         1
     22198     22197     22199         0         1
     22201     22200     22202         0         1
     22204     22203     22205         0         1
     22207     22206     22208         0         1
     22210     22209     22211         0         1
     22213     22212     22214         0         1
     22216     22215     22217         0         1
     22219     22218     22220         0         1
     22222     22221     22223         0         1
     22225     22224     22226         0         1
     22228     22227     22229         0         1
     22231     22230     22232         0         1
     22234     22233     22235         0         1
     22237     22236     22238         0         1
     22240     22239     22241         0         1
     22243     22242     22244         0         1
     22246     22245     22247         0         1
     22249     22248     22250         0         1
     22252     22251     22253         0         1
     22255     22254     22256         0         1
     22258     22257     22259         0         1
     22261     22260     22262         0         1
     22264     22263     22265         0         1
     22267     22266     22268         0         1
     22270     22269     22271         0         1
     22273     22272     22274         0         1
     22276     22275     22277         0         1
     22279     22278     22280         0         1
     22282     22281     22283         0         1
     22285     22284     22286         0         1
     22288     22287     22289         0         1
     22291     22290     22292         0         1
     22294     22293     22295         0         1
     22297     22296     22298         0         1
     22300     22299     22301         0         1
     22303     22302     22304         0         1
     22306     22305     22307         0         1
     22309     22308     22310         0         1
     22312     22311     22313         0         1
     22315     22314     22316         0         1
     22318     22317     22319         0         1
     22321     22320     22322         0         1
     22324     22323     22325         0         1
     22327     22326     22328         0         1
     22330     22329     22331         0         1
     22333     22332     22334         0         1
     22336     22335     22337         0         1
     22339     22338     22340         0         1
     22342     22341     22343         0         1
     22345     22344     22346         0         1
     22348     22347     22349         0         1
     22351     22350     22352         0         1
     22354     22353     22355         0         1
     22357     22356     22358         0         1
     22360     22359     22361         0         1
     22363     22362     22364         0         1
     22366     22365     22367         0         1
     22369     22368     22370         0         1
     22372     22371     22373         0         1
     22375     22374     22376         0         1
     22378     22377     22379         0         1
     22381     22380     22382         0         1
     22384     22383     22385         0         1
     22387     22386     22388         0         1
     22390     22389     22391         0         1
     22393     22392     22394         0         1
     22396     22395     22397         0         1
     22399     22398     22400         0         1
     22402     22401     22403         0         1
     22405     22404     22406         0         1
     22408     22407     22409         0         1
     22411     22410     22412         0         1
     22414     22413     22415         0         1
     22417     22416     22418         0         1
     22420     22419     22421         0         1
     22423     22422     22424         0         1
     22426     22425     22427         0         1
     22429     22428     22430         0         1
     22432     22431     22433         0         1
     22435     22434     22436         0         1
     22438     22437     22439         0         1
     22441     22440     22442         0         1
     22444     22443     22445         0         1
     22447     22446     22448         0         1
     22450     22449     22451         0         1
     22453     22452     22454         0         1
     22456     22455     22457         0         1
     22459     22458     22460         0         1
     22462     22461     22463         0         1
     22465     22464     22466         0         1
     22468     22467     22469         0         1
     22471     22470     22472         0         1
     22474     22473     22475         0         1
     22477     22476     22478         0         1
     22480     22479     22481         0         1
     22483     22482     22484         0         1
     22486     22485     22487         0         1
     22489     22488     22490         0         1
     22492     22491     22493         0         1
     22495     22494     22496         0         1
     22498     22497     22499         0         1
     22501     22500     22502         0         1
     22504     22503     22505         0         1
     22507     22506     22508         0         1
     22510     22509     22511         0         1
     22513     22512     22514         0         1
     22516     22515     22517         0         1
     22519     22518     22520         0         1
     22522     22521     22523         0         1
     22525     22524     22526         0         1
     22528     22527     22529         0         1
     22531     22530     22532         0         1
     22534     22533     22535         0         1
     22537     22536     22538         0         1
     22540     22539     22541         0         1
     22543     22542     22544         0         1
     22546     22545     22547         0         1
     22549     22548     22550         0         1
     22552     22551     22553         0         1
     22555     22554     22556         0         1
     22558     22557     22559         0         1
     22561     22560     22562         0         1
     22564     22563     22565         0         1
     22567     22566     22568         0         1
     22570     22569     22571         0         1
     22573     22572     22574         0         1
     22576     22575     22577         0         1
     22579     22578     22580         0         1
     22582     22581     22583         0         1
     22585     22584     22586         0         1
     22588     22587     22589         0         1
     22591     22590     22592         0         1
     22594     22593     22595         0         1
     22597     22596     22598         0         1
     22600     22599     22601         0         1
     22603     22602     22604         0         1
     22606     22605     22607         0         1
     22609     22608     22610         0         1
     22612     22611     22613         0         1
     22615     22614     22616         0         1
     22618     22617     22619         0         1
     22621     22620     22622         0         1
     22624     22623     22625         0         1
     22627     22626     22628         0         1
     22630     22629     22631         0         1
     22633     22632     22634         0         1
     22636     22635     22637         0         1
     22639     22638     22640         0         1
     22642     22641     22643         0         1
     22645     22644     22646         0         1
     22648     22647     22649         0         1
     22651     22650     22652         0         1
     22654     22653     22655         0         1
     22657     22656     22658         0         1
     22660     22659     22661         0         1
     22663     22662     22664         0         1
     22666     22665     22667         0         1
     22669     22668     22670         0         1
     22672     22671     22673         0         1
     22675     22674     22676         0         1
     22678     22677     22679         0         1
     22681     22680     22682         0         1
     22684     22683     22685         0         1
     22687     22686     22688         0         1
     22690     22689     22691         0         1
     22693     22692     22694         0         1
     22696     22695     22697         0         1
     22699     22698     22700         0         1
     22702     22701     22703         0         1
     22705     22704     22706         0         1
     22708     22707     22709         0         1
     22711     22710     22712         0         1
     22714     22713     22715         0         1
     22717     22716     22718         0         1
     22720     22719     22721         0         1
     22723     22722     22724         0         1
     22726     22725     22727         0         1
     22729     22728     22730         0         1
     22732     22731     22733         0         1
     22735     22734     22736         0         1
     22738     22737     22739         0         1
     22741     22740     22742         0         1
     22744     22743     22745         0         1
     22747     22746     22748         0         1
     22750     22749     22751         0         1
     22753     22752     22754         0         1
     22756     22755     22757         0         1
     22759     22758     22760         0         1
     22762     22761     22763         0         1
     22765     22764     22766         0         1
     22768     22767     22769         0         1
     22771     22770     22772         0         1
     22774     22773     22775         0         1
     22777     22776     22778         0         1
     22780     22779     22781         0         1
     22783     22782     22784         0         1
     22786     22785     22787         0         1
     22789     22788     22790         0         1
     22792     22791     22793         0         1
     22795     22794     22796         0         1
     22798     22797     22799         0         1
     22801     22800     22802         0         1
     22804     22803     22805         0         1
     22807     22806     22808         0         1
     22810     22809     22811         0         1
     22813     22812     22814         0         1
     22816     22815     22817         0         1
     22819     22818     22820         0         1
     22822     22821     22823         0         1
     22825     22824     22826         0         1
     22828     22827     22829         0         1
     22831     22830     22832         0         1
     22834     22833     22835         0         1
     22837     22836     22838         0         1
     22840     22839     22841         0         1
     22843     22842     22844         0         1
     22846     22845     22847         0         1
     22849     22848     22850         0         1
     22852     22851     22853         0         1
     22855     22854     22856         0         1
     22858     22857     22859         0         1
     22861     22860     22862         0         1
     22864     22863     22865         0         1
     22867     22866     22868         0         1
     22870     22869     22871         0         1
     22873     22872     22874         0         1
     22876     22875     22877         0         1
     22879     22878     22880         0         1
     22882     22881     22883         0         1
     22885     22884     22886         0         1
     22888     22887     22889         0         1
     22891     22890     22892         0         1
     22894     22893     22895         0         1
     22897     22896     22898         0         1
     22900     22899     22901         0         1
     22903     22902     22904         0         1
     22906     22905     22907         0         1
     22909     22908     22910         0         1
     22912     22911     22913         0         1
     22915     22914     22916         0         1
     22918     22917     22919         0         1
     22921     22920     22922         0         1
     22924     22923     22925         0         1
     22927     22926     22928         0         1
     22930     22929     22931         0         1
     22933     22932     22934         0         1
     22936     22935     22937         0         1
     22939     22938     22940         0         1
     22942     22941     22943         0         1
     22945     22944     22946         0         1
     22948     22947     22949         0         1
     22951     22950     22952         0         1
     22954     22953     22955         0         1
     22957     22956     22958         0         1
     22960     22959     22961         0         1
     22963     22962     22964         0         1
     22966     22965     22967         0         1
     22969     22968     22970         0         1
     22972     22971     22973         0         1
     22975     22974     22976         0         1
     22978     22977     22979         0         1
     22981     22980     22982         0         1
     22984     22983     22985         0         1
     22987     22986     22988         0         1
     22990     22989     22991         0         1
     22993     22992     22994         0         1
     22996     22995     22997         0         1
     22999     22998     23000         0         1
     23002     23001     23003         0         1
     23005     23004     23006         0         1
     23008     23007     23009         0         1
     23011     23010     23012         0         1
     23014     23013     23015         0         1
     23017     23016     23018         0         1
     23020     23019     23021         0         1
     23023     23022     23024         0         1
     23026     23025     23027         0         1
     23029     23028     23030         0         1
     23032     23031     23033         0         1
     23035     23034     23036         0         1
     23038     23037     23039         0         1
     23041     23040     23042         0         1
     23044     23043     23045         0         1
     23047     23046     23048         0         1
     23050     23049     23051         0         1
     23053     23052     23054         0         1
     23056     23055     23057         0         1
     23059     23058     23060         0         1
     23062     23061     23063         0         1
     23065     23064     23066         0         1
     23068     23067     23069         0         1
     23071     23070     23072         0         1
     23074     23073     23075         0         1
     23077     23076     23078         0         1
     23080     23079     23081         0         1
     23083     23082     23084         0         1
     23086     23085     23087         0         1
     23089     23088     23090         0         1
     23092     23091     23093         0         1
     23095     23094     23096         0         1
     23098     23097     23099         0         1
     23101     23100     23102         0         1
     23104     23103     23105         0         1
     23107     23106     23108         0         1
     23110     23109     23111         0         1
     23113     23112     23114         0         1
     23116     23115     23117         0         1
     23119     23118     23120         0         1
     23122     23121     23123         0         1
     23125     23124     23126         0         1
     23128     23127     23129         0         1
     23131     23130     23132         0         1
     23134     23133     23135         0         1
     23137     23136     23138         0         1
     23140     23139     23141         0         1
     23143     23142     23144         0         1
     23146     23145     23147         0         1
     23149     23148     23150         0         1
     23152     23151     23153         0         1
     23155     23154     23156         0         1
     23158     23157     23159         0         1
     23161     23160     23162         0         1
     23164     23163     23165         0         1
     23167     23166     23168         0         1
     23170     23169     23171         0         1
     23173     23172     23174         0         1
     23176     23175     23177         0         1
     23179     23178     23180         0         1
     23182     23181     23183         0         1
     23185     23184     23186         0         1
     23188     23187     23189         0         1
     23191     23190     23192         0         1
     23194     23193     23195         0         1
     23197     23196     23198         0         1
     23200     23199     23201         0         1
     23203     23202     23204         0         1
     23206     23205     23207         0         1
     23209     23208     23210         0         1
     23212     23211     23213         0         1
     23215     23214     23216         0         1
     23218     23217     23219         0         1
     23221     23220     23222         0         1
     23224     23223     23225         0         1
     23227     23226     23228         0         1
     23230     23229     23231         0         1
     23233     23232     23234         0         1
     23236     23235     23237         0         1
     23239     23238     23240         0         1
     23242     23241     23243         0         1
     23245     23244     23246         0         1
     23248     23247     23249         0         1
     23251     23250     23252         0         1
     23254     23253     23255         0         1
     23257     23256     23258         0         1
     23260     23259     23261         0         1
     23263     23262     23264         0         1
     23266     23265     23267         0         1
     23269     23268     23270         0         1
     23272     23271     23273         0         1
     23275     23274     23276         0         1
     23278     23277     23279         0         1
     23281     23280     23282         0         1
     23284     23283     23285         0         1
     23287     23286     23288         0         1
     23290     23289     23291         0         1
     23293     23292     23294         0         1
     23296     23295     23297         0         1
     23299     23298     23300         0         1
     23302     23301     23303         0         1
     23305     23304     23306         0         1
     23308     23307     23309         0         1
     23311     23310     23312         0         1
     23314     23313     23315         0         1
     23317     23316     23318         0         1
     23320     23319     23321         0         1
     23323     23322     23324         0         1
     23326     23325     23327         0         1
     23329     23328     23330         0         1
     23332     23331     23333         0         1
     23335     23334     23336         0         1
     23338     23337     23339         0         1
     23341     23340     23342         0         1
     23344     23343     23345         0         1
     23347     23346     23348         0         1
     23350     23349     23351         0         1
     23353     23352     23354         0         1
     23356     23355     23357         0         1
     23359     23358     23360         0         1
     23362     23361     23363         0         1
     23365     23364     23366         0         1
     23368     23367     23369         0         1
     23371     23370     23372         0         1
     23374     23373     23375         0         1
     23377     23376     23378         0         1
     23380     23379     23381         0         1
     23383     23382     23384         0         1
     23386     23385     23387         0         1
     23389     23388     23390         0         1
     23392     23391     23393         0         1
     23395     23394     23396         0         1
     23398     23397     23399         0         1
     23401     23400     23402         0         1
     23404     23403     23405         0         1
     23407     23406     23408         0         1
     23410     23409     23411         0         1
     23413     23412     23414         0         1
     23416     23415     23417         0         1
     23419     23418     23420         0         1
     23422     23421     23423         0         1
     23425     23424     23426         0         1
     23428     23427     23429         0         1
     23431     23430     23432         0         1
     23434     23433     23435         0         1
     23437     23436     23438         0         1
     23440     23439     23441         0         1
     23443     23442     23444         0         1
     23446     23445     23447         0         1
     23449     23448     23450         0         1
     23452     23451     23453         0         1
     23455     23454     23456         0         1
     23458     23457     23459         0         1
     23461     23460     23462         0         1
     23464     23463     23465         0         1
     23467     23466     23468         0         1
     23470     23469     23471         0         1
     23473     23472     23474         0         1
     23476     23475     23477         0         1
     23479     23478     23480         0         1
     23482     23481     23483         0         1
     23485     23484     23486         0         1
     23488     23487     23489         0         1
     23491     23490     23492         0         1
     23494     23493     23495         0         1
     23497     23496     23498         0         1
     23500     23499     23501         0         1
     23503     23502     23504         0         1
     23506     23505     23507         0         1
     23509     23508     23510         0         1
     23512     23511     23513         0         1
     23515     23514     23516         0         1
     23518     23517     23519         0         1
     23521     23520     23522         0         1
     23524     23523     23525         0         1
     23527     23526     23528         0         1
     23530     23529     23531         0         1
     23533     23532     23534         0         1
     23536     23535     23537         0         1
     23539     23538     23540         0         1
     23542     23541     23543         0         1
     23545     23544     23546         0         1
     23548     23547     23549         0         1
     23551     23550     23552         0         1
     23554     23553     23555         0         1
     23557     23556     23558         0         1
     23560     23559     23561         0         1
     23563     23562     23564         0         1
     23566     23565     23567         0         1
     23569     23568     23570         0         1
     23572     23571     23573         0         1
     23575     23574     23576         0         1
     23578     23577     23579         0         1
     23581     23580     23582         0         1
     23584     23583     23585         0         1
     23587     23586     23588         0         1
     23590     23589     23591         0         1
     23593     23592     23594         0         1
     23596     23595     23597         0         1
     23599     23598     23600         0         1
     23602     23601     23603         0         1
     23605     23604     23606         0         1
     23608     23607     23609         0         1
     23611     23610     23612         0         1
     23614     23613     23615         0         1
     23617     23616     23618         0         1
     23620     23619     23621         0         1
     23623     23622     23624         0         1
     23626     23625     23627         0         1
     23629     23628     23630         0         1
     23632     23631     23633         0         1
     23635     23634     23636         0         1
     23638     23637     23639         0         1
     23641     23640     23642         0         1
     23644     23643     23645         0         1
     23647     23646     23648         0         1
     23650     23649     23651         0         1
     23653     23652     23654         0         1
     23656     23655     23657         0         1
     23659     23658     23660         0         1
     23662     23661     23663         0         1
     23665     23664     23666         0         1
     23668     23667     23669         0         1
     23671     23670     23672         0         1
     23674     23673     23675         0         1
     23677     23676     23678         0         1
     23680     23679     23681         0         1
     23683     23682     23684         0         1
     23686     23685     23687         0         1
     23689     23688     23690         0         1
     23692     23691     23693         0         1
     23695     23694     23696         0         1
     23698     23697     23699         0         1
     23701     23700     23702         0         1
     23704     23703     23705         0         1
     23707     23706     23708         0         1
     23710     23709     23711         0         1
     23713     23712     23714         0         1
     23716     23715     23717         0         1
     23719     23718     23720         0         1
     23722     23721     23723         0         1
     23725     23724     23726         0         1
     23728     23727     23729         0         1
     23731     23730     23732         0         1
     23734     23733     23735         0         1
     23737     23736     23738         0         1
     23740     23739     23741         0         1
     23743     23742     23744         0         1
     23746     23745     23747         0         1
     23749     23748     23750         0         1
     23752     23751     23753         0         1
     23755     23754     23756         0         1
     23758     23757     23759         0         1
     23761     23760     23762         0         1
     23764     23763     23765         0         1
     23767     23766     23768         0         1
     23770     23769     23771         0         1
     23773     23772     23774         0         1
     23776     23775     23777         0         1
     23779     23778     23780         0         1
     23782     23781     23783         0         1
     23785     23784     23786         0         1
     23788     23787     23789         0         1
     23791     23790     23792         0         1
     23794     23793     23795         0         1
     23797     23796     23798         0         1
     23800     23799     23801         0         1
     23803     23802     23804         0         1
     23806     23805     23807         0         1
     23809     23808     23810         0         1
     23812     23811     23813         0         1
     23815     23814     23816         0         1
     23818     23817     23819         0         1
     23821     23820     23822         0         1
     23824     23823     23825         0         1
     23827     23826     23828         0         1
     23830     23829     23831         0         1
     23833     23832     23834         0         1
     23836     23835     23837         0         1
     23839     23838     23840         0         1
     23842     23841     23843         0         1
     23845     23844     23846         0         1
     23848     23847     23849         0         1
     23851     23850     23852         0         1
     23854     23853     23855         0         1
     23857     23856     23858         0         1
     23860     23859     23861         0         1
     23863     23862     23864         0         1
     23866     23865     23867         0         1
     23869     23868     23870         0         1
     23872     23871     23873         0         1
     23875     23874     23876         0         1
     23878     23877     23879         0         1
     23881     23880     23882         0         1
     23884     23883     23885         0         1
     23887     23886     23888         0         1
     23890     23889     23891         0         1
     23893     23892     23894         0         1
     23896     23895     23897         0         1
     23899     23898     23900         0         1
     23902     23901     23903         0         1
     23905     23904     23906         0         1
     23908     23907     23909         0         1
     23911     23910     23912         0         1
     23914     23913     23915         0         1
     23917     23916     23918         0         1
     23920     23919     23921         0         1
     23923     23922     23924         0         1
     23926     23925     23927         0         1
     23929     23928     23930         0         1
     23932     23931     23933         0         1
     23935     23934     23936         0         1
     23938     23937     23939         0         1
     23941     23940     23942         0         1
     23944     23943     23945         0         1
     23947     23946     23948         0         1
     23950     23949     23951         0         1
     23953     23952     23954         0         1
     23956     23955     23957         0         1
     23959     23958     23960         0         1
     23962     23961     23963         0         1
     23965     23964     23966         0         1
     23968     23967     23969         0         1
     23971     23970     23972         0         1
     23974     23973     23975         0         1
     23977     23976     23978         0         1
     23980     23979     23981         0         1
     23983     23982     23984         0         1
     23986     23985     23987         0         1
     23989     23988     23990         0         1
     23992     23991     23993         0         1
     23995     23994     23996         0         1
     23998     23997     23999         0         1
     24001     24000     24002         0         1
     24004     24003     24005         0         1
     24007     24006     24008         0         1
     24010     24009     24011         0         1
     24013     24012     24014         0         1
     24016     24015     24017         0         1
     24019     24018     24020         0         1
     24022     24021     24023         0         1
     24025     24024     24026         0         1
     24028     24027     24029         0         1
     24031     24030     24032         0         1
     24034     24033     24035         0         1
     24037     24036     24038         0         1
     24040     24039     24041         0         1
     24043     24042     24044         0         1
     24046     24045     24047         0         1
     24049     24048     24050         0         1
     24052     24051     24053         0         1
     24055     24054     24056         0         1
     24058     24057     24059         0         1
     24061     24060     24062         0         1
     24064     24063     24065         0         1
     24067     24066     24068         0         1
     24070     24069     24071         0         1
     24073     24072     24074         0         1
     24076     24075     24077         0         1
     24079     24078     24080         0         1
     24082     24081     24083         0         1
     24085     24084     24086         0         1
     24088     24087     24089         0         1
     24091     24090     24092         0         1
     24094     24093     24095         0         1
     24097     24096     24098         0         1
     24100     24099     24101         0         1
     24103     24102     24104         0         1
     24106     24105     24107         0         1
     24109     24108     24110         0         1
     24112     24111     24113         0         1
     24115     24114     24116         0         1
     24118     24117     24119         0         1
     24121     24120     24122         0         1
     24124     24123     24125         0         1
     24127     24126     24128         0         1
     24130     24129     24131         0         1
     24133     24132     24134         0         1
     24136     24135     24137         0         1
     24139     24138     24140         0         1
     24142     24141     24143         0         1
     24145     24144     24146         0         1
     24148     24147     24149         0         1
     24151     24150     24152         0         1
     24154     24153     24155         0         1
     24157     24156     24158         0         1
     24160     24159     24161         0         1
     24163     24162     24164         0         1
     24166     24165     24167         0         1
     24169     24168     24170         0         1
     24172     24171     24173         0         1
     24175     24174     24176         0         1
     24178     24177     24179         0         1
     24181     24180     24182         0         1
     24184     24183     24185         0         1
     24187     24186     24188         0         1
     24190     24189     24191         0         1
     24193     24192     24194         0         1
     24196     24195     24197         0         1
     24199     24198     24200         0         1
     24202     24201     24203         0         1
     24205     24204     24206         0         1
     24208     24207     24209         0         1
     24211     24210     24212         0         1
     24214     24213     24215         0         1
     24217     24216     24218         0         1
     24220     24219     24221         0         1
     24223     24222     24224         0         1
     24226     24225     24227         0         1
     24229     24228     24230         0         1
     24232     24231     24233         0         1
     24235     24234     24236         0         1
     24238     24237     24239         0         1
     24241     24240     24242         0         1
     24244     24243     24245         0         1
     24247     24246     24248         0         1
     24250     24249     24251         0         1
     24253     24252     24254         0         1
     24256     24255     24257         0         1
     24259     24258     24260         0         1
     24262     24261     24263         0         1
     24265     24264     24266         0         1
     24268     24267     24269         0         1
     24271     24270     24272         0         1
     24274     24273     24275         0         1
     24277     24276     24278         0         1
     24280     24279     24281         0         1
     24283     24282     24284         0         1
     24286     24285     24287         0         1
     24289     24288     24290         0         1
     24292     24291     24293         0         1
     24295     24294     24296         0         1
     24298     24297     24299         0         1
     24301     24300     24302         0         1
     24304     24303     24305         0         1
     24307     24306     24308         0         1
     24310     24309     24311         0         1
     24313     24312     24314         0         1
     24316     24315     24317         0         1
     24319     24318     24320         0         1
     24322     24321     24323         0         1
     24325     24324     24326         0         1
     24328     24327     24329         0         1
     24331     24330     24332         0         1
     24334     24333     24335         0         1
     24337     24336     24338         0         1
     24340     24339     24341         0         1
     24343     24342     24344         0         1
     24346     24345     24347         0         1
     24349     24348     24350         0         1
     24352     24351     24353         0         1
     24355     24354     24356         0         1
     24358     24357     24359         0         1
     24361     24360     24362         0         1
     24364     24363     24365         0         1
     24367     24366     24368         0         1
     24370     24369     24371         0         1
     24373     24372     24374         0         1
     24376     24375     24377         0         1
     24379     24378     24380         0         1
     24382     24381     24383         0         1
     24385     24384     24386         0         1
     24388     24387     24389         0         1
     24391     24390     24392         0         1
     24394     24393     24395         0         1
     24397     24396     24398         0         1
     24400     24399     24401         0         1
     24403     24402     24404         0         1
     24406     24405     24407         0         1
     24409     24408     24410         0         1
     24412     24411     24413         0         1
     24415     24414     24416         0         1
     24418     24417     24419         0         1
     24421     24420     24422         0         1
     24424     24423     24425         0         1
     24427     24426     24428         0         1
     24430     24429     24431         0         1
     24433     24432     24434         0         1
     24436     24435     24437         0         1
     24439     24438     24440         0         1
     24442     24441     24443         0         1
     24445     24444     24446         0         1
     24448     24447     24449         0         1
     24451     24450     24452         0         1
     24454     24453     24455         0         1
     24457     24456     24458         0         1
     24460     24459     24461         0         1
     24463     24462     24464         0         1
     24466     24465     24467         0         1
     24469     24468     24470         0         1
     24472     24471     24473         0         1
     24475     24474     24476         0         1
     24478     24477     24479         0         1
     24481     24480     24482         0         1
     24484     24483     24485         0         1
     24487     24486     24488         0         1
     24490     24489     24491         0         1
     24493     24492     24494         0         1
     24496     24495     24497         0         1
     24499     24498     24500         0         1
     24502     24501     24503         0         1
     24505     24504     24506         0         1
     24508     24507     24509         0         1
     24511     24510     24512         0         1
     24514     24513     24515         0         1
     24517     24516     24518         0         1
     24520     24519     24521         0         1
     24523     24522     24524         0         1
     24526     24525     24527         0         1
     24529     24528     24530         0         1
     24532     24531     24533         0         1
     24535     24534     24536         0         1
     24538     24537     24539         0         1
     24541     24540     24542         0         1
     24544     24543     24545         0         1
     24547     24546     24548         0         1
     24550     24549     24551         0         1
     24553     24552     24554         0         1
     24556     24555     24557         0         1
     24559     24558     24560         0         1
     24562     24561     24563         0         1
     24565     24564     24566         0         1
     24568     24567     24569         0         1
     24571     24570     24572         0         1
     24574     24573     24575         0         1
     24577     24576     24578         0         1
     24580     24579     24581         0         1
     24583     24582     24584         0         1
     24586     24585     24587         0         1
     24589     24588     24590         0         1
     24592     24591     24593         0         1
     24595     24594     24596         0         1
     24598     24597     24599         0         1
     24601     24600     24602         0         1
     24604     24603     24605         0         1
     24607     24606     24608         0         1
     24610     24609     24611         0         1
     24613     24612     24614         0         1
     24616     24615     24617         0         1
     24619     24618     24620         0         1
     24622     24621     24623         0         1
     24625     24624     24626         0         1
     24628     24627     24629         0         1
     24631     24630     24632         0         1
     24634     24633     24635         0         1
     24637     24636     24638         0         1
     24640     24639     24641         0         1
     24643     24642     24644         0         1
     24646     24645     24647         0         1
     24649     24648     24650         0         1
     24652     24651     24653         0         1
     24655     24654     24656         0         1
     24658     24657     24659         0         1
     24661     24660     24662         0         1
     24664     24663     24665         0         1
     24667     24666     24668         0         1
     24670     24669     24671         0         1
     24673     24672     24674         0         1
     24676     24675     24677         0         1
     24679     24678     24680         0         1
     24682     24681     24683         0         1
     24685     24684     24686         0         1
     24688     24687     24689         0         1
     24691     24690     24692         0         1
     24694     24693     24695         0         1
     24697     24696     24698         0         1
     24700     24699     24701         0         1
     24703     24702     24704         0         1
     24706     24705     24707         0         1
     24709     24708     24710         0         1
     24712     24711     24713         0         1
     24715     24714     24716         0         1
     24718     24717     24719         0         1
     24721     24720     24722         0         1
     24724     24723     24725         0         1
     24727     24726     24728         0         1
     24730     24729     24731         0         1
     24733     24732     24734         0         1
     24736     24735     24737         0         1
     24739     24738     24740         0         1
     24742     24741     24743         0         1
     24745     24744     24746         0         1
     24748     24747     24749         0         1
     24751     24750     24752         0         1
     24754     24753     24755         0         1
     24757     24756     24758         0         1
     24760     24759     24761         0         1
     24763     24762     24764         0         1
     24766     24765     24767         0         1
     24769     24768     24770         0         1
     24772     24771     24773         0         1
     24775     24774     24776         0         1
     24778     24777     24779         0         1
     24781     24780     24782         0         1
     24784     24783     24785         0         1
     24787     24786     24788         0         1
     24790     24789     24791         0         1
     24793     24792     24794         0         1
     24796     24795     24797         0         1
     24799     24798     24800         0         1
     24802     24801     24803         0         1
     24805     24804     24806         0         1
     24808     24807     24809         0         1
     24811     24810     24812         0         1
     24814     24813     24815         0         1
     24817     24816     24818         0         1
     24820     24819     24821         0         1
     24823     24822     24824         0         1
     24826     24825     24827         0         1
     24829     24828     24830         0         1
     24832     24831     24833         0         1
     24835     24834     24836         0         1
     24838     24837     24839         0         1
     24841     24840     24842         0         1
     24844     24843     24845         0         1
     24847     24846     24848         0         1
     24850     24849     24851         0         1
     24853     24852     24854         0         1
     24856     24855     24857         0         1
     24859     24858     24860         0         1
     24862     24861     24863         0         1
     24865     24864     24866         0         1
     24868     24867     24869         0         1
     24871     24870     24872         0         1
     24874     24873     24875         0         1
     24877     24876     24878         0         1
     24880     24879     24881         0         1
     24883     24882     24884         0         1
     24886     24885     24887         0         1
     24889     24888     24890         0         1
     24892     24891     24893         0         1
     24895     24894     24896         0         1
     24898     24897     24899         0         1
     24901     24900     24902         0         1
     24904     24903     24905         0         1
     24907     24906     24908         0         1
     24910     24909     24911         0         1
     24913     24912     24914         0         1
     24916     24915     24917         0         1
     24919     24918     24920         0         1
     24922     24921     24923         0         1
     24925     24924     24926         0         1
     24928     24927     24929         0         1
     24931     24930     24932         0         1
     24934     24933     24935         0         1
     24937     24936     24938         0         1
     24940     24939     24941         0         1
     24943     24942     24944         0         1
     24946     24945     24947         0         1
     24949     24948     24950         0         1
     24952     24951     24953         0         1
     24955     24954     24956         0         1
     24958     24957     24959         0         1
     24961     24960     24962         0         1
     24964     24963     24965         0         1
     24967     24966     24968         0         1
     24970     24969     24971         0         1
     24973     24972     24974         0         1
     24976     24975     24977         0         1
     24979     24978     24980         0         1
     24982     24981     24983         0         1
     24985     24984     24986         0         1
     24988     24987     24989         0         1
     24991     24990     24992         0         1
     24994     24993     24995         0         1
     24997     24996     24998         0         1
     25000     24999     25001         0         1
     25003     25002     25004         0         1
     25006     25005     25007         0         1
     25009     25008     25010         0         1
     25012     25011     25013         0         1
     25015     25014     25016         0         1
     25018     25017     25019         0         1
     25021     25020     25022         0         1
     25024     25023     25025         0         1
     25027     25026     25028         0         1
     25030     25029     25031         0         1
     25033     25032     25034         0         1
     25036     25035     25037         0         1
     25039     25038     25040         0         1
     25042     25041     25043         0         1
     25045     25044     25046         0         1
     25048     25047     25049         0         1
     25051     25050     25052         0         1
     25054     25053     25055         0         1
     25057     25056     25058         0         1
     25060     25059     25061         0         1
     25063     25062     25064         0         1
     25066     25065     25067         0         1
     25069     25068     25070         0         1
     25072     25071     25073         0         1
     25075     25074     25076         0         1
     25078     25077     25079         0         1
     25081     25080     25082         0         1
     25084     25083     25085         0         1
     25087     25086     25088         0         1
     25090     25089     25091         0         1
     25093     25092     25094         0         1
     25096     25095     25097         0         1
     25099     25098     25100         0         1
     25102     25101     25103         0         1
     25105     25104     25106         0         1
     25108     25107     25109         0         1
     25111     25110     25112         0         1
     25114     25113     25115         0         1
     25117     25116     25118         0         1
     25120     25119     25121         0         1
     25123     25122     25124         0         1
     25126     25125     25127         0         1
     25129     25128     25130         0         1
     25132     25131     25133         0         1
     25135     25134     25136         0         1
     25138     25137     25139         0         1
     25141     25140     25142         0         1
     25144     25143     25145         0         1
     25147     25146     25148         0         1
     25150     25149     25151         0         1
     25153     25152     25154         0         1
     25156     25155     25157         0         1
     25159     25158     25160         0         1
     25162     25161     25163         0         1
     25165     25164     25166         0         1
     25168     25167     25169         0         1
     25171     25170     25172         0         1
     25174     25173     25175         0         1
     25177     25176     25178         0         1
     25180     25179     25181         0         1
     25183     25182     25184         0         1
     25186     25185     25187         0         1
     25189     25188     25190         0         1
     25192     25191     25193         0         1
     25195     25194     25196         0         1
     25198     25197     25199         0         1
     25201     25200     25202         0         1
     25204     25203     25205         0         1
     25207     25206     25208         0         1
     25210     25209     25211         0         1
     25213     25212     25214         0         1
     25216     25215     25217         0         1
     25219     25218     25220         0         1
     25222     25221     25223         0         1
     25225     25224     25226         0         1
     25228     25227     25229         0         1
     25231     25230     25232         0         1
     25234     25233     25235         0         1
     25237     25236     25238         0         1
     25240     25239     25241         0         1
     25243     25242     25244         0         1
     25246     25245     25247         0         1
     25249     25248     25250         0         1
     25252     25251     25253         0         1
     25255     25254     25256         0         1
     25258     25257     25259         0         1
     25261     25260     25262         0         1
     25264     25263     25265         0         1
     25267     25266     25268         0         1
     25270     25269     25271         0         1
     25273     25272     25274         0         1
     25276     25275     25277         0         1
     25279     25278     25280         0         1
     25282     25281     25283         0         1
     25285     25284     25286         0         1
     25288     25287     25289         0         1
     25291     25290     25292         0         1
     25294     25293     25295         0         1
     25297     25296     25298         0         1
     25300     25299     25301         0         1
     25303     25302     25304         0         1
     25306     25305     25307         0         1
     25309     25308     25310         0         1
     25312     25311     25313         0         1
     25315     25314     25316         0         1
     25318     25317     25319         0         1
     25321     25320     25322         0         1
     25324     25323     25325         0         1
     25327     25326     25328         0         1
     25330     25329     25331         0         1
     25333     25332     25334         0         1
     25336     25335     25337         0         1
     25339     25338     25340         0         1
     25342     25341     25343         0         1
     25345     25344     25346         0         1
     25348     25347     25349         0         1
     25351     25350     25352         0         1
     25354     25353     25355         0         1
     25357     25356     25358         0         1
     25360     25359     25361         0         1
     25363     25362     25364         0         1
     25366     25365     25367         0         1
     25369     25368     25370         0         1
     25372     25371     25373         0         1
     25375     25374     25376         0         1
     25378     25377     25379         0         1
     25381     25380     25382         0         1
     25384     25383     25385         0         1
     25387     25386     25388         0         1
     25390     25389     25391         0         1
     25393     25392     25394         0         1
     25396     25395     25397         0         1
     25399     25398     25400         0         1
     25402     25401     25403         0         1
     25405     25404     25406         0         1
     25408     25407     25409         0         1
     25411     25410     25412         0         1
     25414     25413     25415         0         1
     25417     25416     25418         0         1
     25420     25419     25421         0         1
     25423     25422     25424         0         1
     25426     25425     25427         0         1
     25429     25428     25430         0         1
     25432     25431     25433         0         1
     25435     25434     25436         0         1
     25438     25437     25439         0         1
     25441     25440     25442         0         1
     25444     25443     25445         0         1
     25447     25446     25448         0         1
     25450     25449     25451         0         1
     25453     25452     25454         0         1
     25456     25455     25457         0         1
     25459     25458     25460         0         1
     25462     25461     25463         0         1
     25465     25464     25466         0         1
     25468     25467     25469         0         1
     25471     25470     25472         0         1
     25474     25473     25475         0         1
     25477     25476     25478         0         1
     25480     25479     25481         0         1
     25483     25482     25484         0         1
     25486     25485     25487         0         1
     25489     25488     25490         0         1
     25492     25491     25493         0         1
     25495     25494     25496         0         1
     25498     25497     25499         0         1
     25501     25500     25502         0         1
     25504     25503     25505         0         1
     25507     25506     25508         0         1
     25510     25509     25511         0         1
     25513     25512     25514         0         1
     25516     25515     25517         0         1
     25519     25518     25520         0         1
     25522     25521     25523         0         1
     25525     25524     25526         0         1
     25528     25527     25529         0         1
     25531     25530     25532         0         1
     25534     25533     25535         0         1
     25537     25536     25538         0         1
     25540     25539     25541         0         1
     25543     25542     25544         0         1
     25546     25545     25547         0         1
     25549     25548     25550         0         1
     25552     25551     25553         0         1
     25555     25554     25556         0         1
     25558     25557     25559         0         1
     25561     25560     25562         0         1
     25564     25563     25565         0         1
     25567     25566     25568         0         1
     25570     25569     25571         0         1
     25573     25572     25574         0         1
     25576     25575     25577         0         1
     25579     25578     25580         0         1
     25582     25581     25583         0         1
     25585     25584     25586         0         1
     25588     25587     25589         0         1
     25591     25590     25592         0         1
     25594     25593     25595         0         1
     25597     25596     25598         0         1
     25600     25599     25601         0         1
     25603     25602     25604         0         1
     25606     25605     25607         0         1
     25609     25608     25610         0         1
     25612     25611     25613         0         1
     25615     25614     25616         0         1
     25618     25617     25619         0         1
     25621     25620     25622         0         1
     25624     25623     25625         0         1
     25627     25626     25628         0         1
     25630     25629     25631         0         1
     25633     25632     25634         0         1
     25636     25635     25637         0         1
     25639     25638     25640         0         1
     25642     25641     25643         0         1
     25645     25644     25646         0         1
     25648     25647     25649         0         1
     25651     25650     25652         0         1
     25654     25653     25655         0         1
     25657     25656     25658         0         1
     25660     25659     25661         0         1
     25663     25662     25664         0         1
     25666     25665     25667         0         1
     25669     25668     25670         0         1
     25672     25671     25673         0         1
     25675     25674     25676         0         1
     25678     25677     25679         0         1
     25681     25680     25682         0         1
     25684     25683     25685         0         1
     25687     25686     25688         0         1
     25690     25689     25691         0         1
     25693     25692     25694         0         1
     25696     25695     25697         0         1
     25699     25698     25700         0         1
     25702     25701     25703         0         1
     25705     25704     25706         0         1
     25708     25707     25709         0         1
     25711     25710     25712         0         1
     25714     25713     25715         0         1
     25717     25716     25718         0         1
     25720     25719     25721         0         1
     25723     25722     25724         0         1
     25726     25725     25727         0         1
     25729     25728     25730         0         1
     25732     25731     25733         0         1
     25735     25734     25736         0         1
     25738     25737     25739         0         1
     25741     25740     25742         0         1
     25744     25743     25745         0         1
     25747     25746     25748         0         1
     25750     25749     25751         0         1
     25753     25752     25754         0         1
     25756     25755     25757         0         1
     25759     25758     25760         0         1
     25762     25761     25763         0         1
     25765     25764     25766         0         1
     25768     25767     25769         0         1
     25771     25770     25772         0         1
     25774     25773     25775         0         1
     25777     25776     25778         0         1
     25780     25779     25781         0         1
     25783     25782     25784         0         1
     25786     25785     25787         0         1
     25789     25788     25790         0         1
     25792     25791     25793         0         1
     25795     25794     25796         0         1
     25798     25797     25799         0         1
     25801     25800     25802         0         1
     25804     25803     25805         0         1
     25807     25806     25808         0         1
     25810     25809     25811         0         1
     25813     25812     25814         0         1
     25816     25815     25817         0         1
     25819     25818     25820         0         1
     25822     25821     25823         0         1
     25825     25824     25826         0         1
     25828     25827     25829         0         1
     25831     25830     25832         0         1
     25834     25833     25835         0         1
     25837     25836     25838         0         1
     25840     25839     25841         0         1
     25843     25842     25844         0         1
     25846     25845     25847         0         1
     25849     25848     25850         0         1
     25852     25851     25853         0         1
     25855     25854     25856         0         1
     25858     25857     25859         0         1
     25861     25860     25862         0         1
     25864     25863     25865         0         1
     25867     25866     25868         0         1
     25870     25869     25871         0         1
     25873     25872     25874         0         1
     25876     25875     25877         0         1
     25879     25878     25880         0         1
     25882     25881     25883         0         1
     25885     25884     25886         0         1
     25888     25887     25889         0         1
     25891     25890     25892         0         1
     25894     25893     25895         0         1
     25897     25896     25898         0         1
     25900     25899     25901         0         1
     25903     25902     25904         0         1
     25906     25905     25907         0         1
     25909     25908     25910         0         1
     25912     25911     25913         0         1
     25915     25914     25916         0         1
     25918     25917     25919         0         1
     25921     25920     25922         0         1
     25924     25923     25925         0         1
     25927     25926     25928         0         1
     25930     25929     25931         0         1
     25933     25932     25934         0         1
     25936     25935     25937         0         1
     25939     25938     25940         0         1
     25942     25941     25943         0         1
     25945     25944     25946         0         1
     25948     25947     25949         0         1
     25951     25950     25952         0         1
     25954     25953     25955         0         1
     25957     25956     25958         0         1
     25960     25959     25961         0         1
     25963     25962     25964         0         1
     25966     25965     25967         0         1
     25969     25968     25970         0         1
     25972     25971     25973         0         1
     25975     25974     25976         0         1
     25978     25977     25979         0         1
     25981     25980     25982         0         1
     25984     25983     25985         0         1
     25987     25986     25988         0         1
     25990     25989     25991         0         1
     25993     25992     25994         0         1
     25996     25995     25997         0         1
     25999     25998     26000         0         1
     26002     26001     26003         0         1
     26005     26004     26006         0         1
     26008     26007     26009         0         1
     26011     26010     26012         0         1
     26014     26013     26015         0         1
     26017     26016     26018         0         1
     26020     26019     26021         0         1
     26023     26022     26024         0         1
     26026     26025     26027         0         1
     26029     26028     26030         0         1
     26032     26031     26033         0         1
     26035     26034     26036         0         1
     26038     26037     26039         0         1
     26041     26040     26042         0         1
     26044     26043     26045         0         1
     26047     26046     26048         0         1
     26050     26049     26051         0         1
     26053     26052     26054         0         1
     26056     26055     26057         0         1
     26059     26058     26060         0         1
     26062     26061     26063         0         1
     26065     26064     26066         0         1
     26068     26067     26069         0         1
     26071     26070     26072         0         1
     26074     26073     26075         0         1
     26077     26076     26078         0         1
     26080     26079     26081         0         1
     26083     26082     26084         0         1
     26086     26085     26087         0         1
     26089     26088     26090         0         1
     26092     26091     26093         0         1
     26095     26094     26096         0         1
     26098     26097     26099         0         1
     26101     26100     26102         0         1
     26104     26103     26105         0         1
     26107     26106     26108         0         1
     26110     26109     26111         0         1
     26113     26112     26114         0         1
     26116     26115     26117         0         1
     26119     26118     26120         0         1
     26122     26121     26123         0         1
     26125     26124     26126         0         1
     26128     26127     26129         0         1
     26131     26130     26132         0         1
     26134     26133     26135         0         1
     26137     26136     26138         0         1
     26140     26139     26141         0         1
     26143     26142     26144         0         1
     26146     26145     26147         0         1
     26149     26148     26150         0         1
     26152     26151     26153         0         1
     26155     26154     26156         0         1
     26158     26157     26159         0         1
     26161     26160     26162         0         1
     26164     26163     26165         0         1
     26167     26166     26168         0         1
     26170     26169     26171         0         1
     26173     26172     26174         0         1
     26176     26175     26177         0         1
     26179     26178     26180         0         1
     26182     26181     26183         0         1
     26185     26184     26186         0         1
     26188     26187     26189         0         1
     26191     26190     26192         0         1
     26194     26193     26195         0         1
     26197     26196     26198         0         1
     26200     26199     26201         0         1
     26203     26202     26204         0         1
     26206     26205     26207         0         1
     26209     26208     26210         0         1
     26212     26211     26213         0         1
     26215     26214     26216         0         1
     26218     26217     26219         0         1
     26221     26220     26222         0         1
     26224     26223     26225         0         1
     26227     26226     26228         0         1
     26230     26229     26231         0         1
     26233     26232     26234         0         1
     26236     26235     26237         0         1
     26239     26238     26240         0         1
     26242     26241     26243         0         1
     26245     26244     26246         0         1
     26248     26247     26249         0         1
     26251     26250     26252         0         1
     26254     26253     26255         0         1
     26257     26256     26258         0         1
     26260     26259     26261         0         1
     26263     26262     26264         0         1
     26266     26265     26267         0         1
     26269     26268     26270         0         1
     26272     26271     26273         0         1
     26275     26274     26276         0         1
     26278     26277     26279         0         1
     26281     26280     26282         0         1
     26284     26283     26285         0         1
     26287     26286     26288         0         1
     26290     26289     26291         0         1
     26293     26292     26294         0         1
     26296     26295     26297         0         1
     26299     26298     26300         0         1
     26302     26301     26303         0         1
     26305     26304     26306         0         1
     26308     26307     26309         0         1
     26311     26310     26312         0         1
     26314     26313     26315         0         1
     26317     26316     26318         0         1
     26320     26319     26321         0         1
     26323     26322     26324         0         1
     26326     26325     26327         0         1
     26329     26328     26330         0         1
     26332     26331     26333         0         1
     26335     26334     26336         0         1
     26338     26337     26339         0         1
     26341     26340     26342         0         1
     26344     26343     26345         0         1
     26347     26346     26348         0         1
     26350     26349     26351         0         1
     26353     26352     26354         0         1
     26356     26355     26357         0         1
     26359     26358     26360         0         1
     26362     26361     26363         0         1
     26365     26364     26366         0         1
     26368     26367     26369         0         1
     26371     26370     26372         0         1
     26374     26373     26375         0         1
     26377     26376     26378         0         1
     26380     26379     26381         0         1
     26383     26382     26384         0         1
     26386     26385     26387         0         1
     26389     26388     26390         0         1
     26392     26391     26393         0         1
     26395     26394     26396         0         1
     26398     26397     26399         0         1
     26401     26400     26402         0         1
     26404     26403     26405         0         1
     26407     26406     26408         0         1
     26410     26409     26411         0         1
     26413     26412     26414         0         1
     26416     26415     26417         0         1
     26419     26418     26420         0         1
     26422     26421     26423         0         1
     26425     26424     26426         0         1
     26428     26427     26429         0         1
     26431     26430     26432         0         1
     26434     26433     26435         0         1
     26437     26436     26438         0         1
     26440     26439     26441         0         1
     26443     26442     26444         0         1
     26446     26445     26447         0         1
     26449     26448     26450         0         1
     26452     26451     26453         0         1
     26455     26454     26456         0         1
     26458     26457     26459         0         1
     26461     26460     26462         0         1
     26464     26463     26465         0         1
     26467     26466     26468         0         1
     26470     26469     26471         0         1
     26473     26472     26474         0         1
     26476     26475     26477         0         1
     26479     26478     26480         0         1
     26482     26481     26483         0         1
     26485     26484     26486         0         1
     26488     26487     26489         0         1
     26491     26490     26492         0         1
     26494     26493     26495         0         1
     26497     26496     26498         0         1
     26500     26499     26501         0         1
     26503     26502     26504         0         1
     26506     26505     26507         0         1
     26509     26508     26510         0         1
     26512     26511     26513         0         1
     26515     26514     26516         0         1
     26518     26517     26519         0         1
     26521     26520     26522         0         1
     26524     26523     26525         0         1
     26527     26526     26528         0         1
     26530     26529     26531         0         1
     26533     26532     26534         0         1
     26536     26535     26537         0         1
     26539     26538     26540         0         1
     26542     26541     26543         0         1
     26545     26544     26546         0         1
     26548     26547     26549         0         1
     26551     26550     26552         0         1
     26554     26553     26555         0         1
     26557     26556     26558         0         1
     26560     26559     26561         0         1
     26563     26562     26564         0         1
     26566     26565     26567         0         1
     26569     26568     26570         0         1
     26572     26571     26573         0         1
     26575     26574     26576         0         1
     26578     26577     26579         0         1
     26581     26580     26582         0         1
     26584     26583     26585         0         1
     26587     26586     26588         0         1
     26590     26589     26591         0         1
     26593     26592     26594         0         1
     26596     26595     26597         0         1
     26599     26598     26600         0         1
     26602     26601     26603         0         1
     26605     26604     26606         0         1
     26608     26607     26609         0         1
     26611     26610     26612         0         1
     26614     26613     26615         0         1
     26617     26616     26618         0         1
     26620     26619     26621         0         1
     26623     26622     26624         0         1
     26626     26625     26627         0         1
     26629     26628     26630         0         1
     26632     26631     26633         0         1
     26635     26634     26636         0         1
     26638     26637     26639         0         1
     26641     26640     26642         0         1
     26644     26643     26645         0         1
     26647     26646     26648         0         1
     26650     26649     26651         0         1
     26653     26652     26654         0         1
     26656     26655     26657         0         1
     26659     26658     26660         0         1
     26662     26661     26663         0         1
     26665     26664     26666         0         1
     26668     26667     26669         0         1
     26671     26670     26672         0         1
     26674     26673     26675         0         1
     26677     26676     26678         0         1
     26680     26679     26681         0         1
     26683     26682     26684         0         1
     26686     26685     26687         0         1
     26689     26688     26690         0         1
     26692     26691     26693         0         1
     26695     26694     26696         0         1
     26698     26697     26699         0         1
     26701     26700     26702         0         1
     26704     26703     26705         0         1
     26707     26706     26708         0         1
     26710     26709     26711         0         1
     26713     26712     26714         0         1
     26716     26715     26717         0         1
     26719     26718     26720         0         1
     26722     26721     26723         0         1
     26725     26724     26726         0         1
     26728     26727     26729         0         1
     26731     26730     26732         0         1
     26734     26733     26735         0         1
     26737     26736     26738         0         1
     26740     26739     26741         0         1
     26743     26742     26744         0         1
     26746     26745     26747         0         1
     26749     26748     26750         0         1
     26752     26751     26753         0         1
     26755     26754     26756         0         1
     26758     26757     26759         0         1
     26761     26760     26762         0         1
     26764     26763     26765         0         1
     26767     26766     26768         0         1
     26770     26769     26771         0         1
     26773     26772     26774         0         1
     26776     26775     26777         0         1
     26779     26778     26780         0         1
     26782     26781     26783         0         1
     26785     26784     26786         0         1
     26788     26787     26789         0         1
     26791     26790     26792         0         1
     26794     26793     26795         0         1
     26797     26796     26798         0         1
     26800     26799     26801         0         1
     26803     26802     26804         0         1
     26806     26805     26807         0         1
     26809     26808     26810         0         1
     26812     26811     26813         0         1
     26815     26814     26816         0         1
     26818     26817     26819         0         1
     26821     26820     26822         0         1
     26824     26823     26825         0         1
     26827     26826     26828         0         1
     26830     26829     26831         0         1
     26833     26832     26834         0         1
     26836     26835     26837         0         1
     26839     26838     26840         0         1
     26842     26841     26843         0         1
     26845     26844     26846         0         1
     26848     26847     26849         0         1
     26851     26850     26852         0         1
     26854     26853     26855         0         1
     26857     26856     26858         0         1
     26860     26859     26861         0         1
     26863     26862     26864         0         1
     26866     26865     26867         0         1
     26869     26868     26870         0         1
     26872     26871     26873         0         1
     26875     26874     26876         0         1
     26878     26877     26879         0         1
     26881     26880     26882         0         1
     26884     26883     26885         0         1
     26887     26886     26888         0         1
     26890     26889     26891         0         1
     26893     26892     26894         0         1
     26896     26895     26897         0         1
     26899     26898     26900         0         1
     26902     26901     26903         0         1
     26905     26904     26906         0         1
     26908     26907     26909         0         1
     26911     26910     26912         0         1
     26914     26913     26915         0         1
     26917     26916     26918         0         1
     26920     26919     26921         0         1
     26923     26922     26924         0         1
     26926     26925     26927         0         1
     26929     26928     26930         0         1
     26932     26931     26933         0         1
     26935     26934     26936         0         1
     26938     26937     26939         0         1
     26941     26940     26942         0         1
     26944     26943     26945         0         1
     26947     26946     26948         0         1
     26950     26949     26951         0         1
     26953     26952     26954         0         1
     26956     26955     26957         0         1
     26959     26958     26960         0         1
     26962     26961     26963         0         1
     26965     26964     26966         0         1
     26968     26967     26969         0         1
     26971     26970     26972         0         1
     26974     26973     26975         0         1
     26977     26976     26978         0         1
     26980     26979     26981         0         1
     26983     26982     26984         0         1
     26986     26985     26987         0         1
     26989     26988     26990         0         1
     26992     26991     26993         0         1
     26995     26994     26996         0         1
     26998     26997     26999         0         1
     27001     27000     27002         0         1
     27004     27003     27005         0         1
     27007     27006     27008         0         1
     27010     27009     27011         0         1
     27013     27012     27014         0         1
     27016     27015     27017         0         1
     27019     27018     27020         0         1
     27022     27021     27023         0         1
     27025     27024     27026         0         1
     27028     27027     27029         0         1
     27031     27030     27032         0         1
     27034     27033     27035         0         1
     27037     27036     27038         0         1
     27040     27039     27041         0         1
     27043     27042     27044         0         1
     27046     27045     27047         0         1
     27049     27048     27050         0         1
     27052     27051     27053         0         1
     27055     27054     27056         0         1
     27058     27057     27059         0         1
     27061     27060     27062         0         1
     27064     27063     27065         0         1
     27067     27066     27068         0         1
     27070     27069     27071         0         1
     27073     27072     27074         0         1
     27076     27075     27077         0         1
     27079     27078     27080         0         1
     27082     27081     27083         0         1
     27085     27084     27086         0         1
     27088     27087     27089         0         1
     27091     27090     27092         0         1
     27094     27093     27095         0         1
     27097     27096     27098         0         1
     27100     27099     27101         0         1
     27103     27102     27104         0         1
     27106     27105     27107         0         1
     27109     27108     27110         0         1
     27112     27111     27113         0         1
     27115     27114     27116         0         1
     27118     27117     27119         0         1
     27121     27120     27122         0         1
     27124     27123     27125         0         1
     27127     27126     27128         0         1
     27130     27129     27131         0         1
     27133     27132     27134         0         1
     27136     27135     27137         0         1
     27139     27138     27140         0         1
     27142     27141     27143         0         1
     27145     27144     27146         0         1
     27148     27147     27149         0         1
     27151     27150     27152         0         1
     27154     27153     27155         0         1
     27157     27156     27158         0         1
     27160     27159     27161         0         1
     27163     27162     27164         0         1
     27166     27165     27167         0         1
     27169     27168     27170         0         1
     27172     27171     27173         0         1
     27175     27174     27176         0         1
     27178     27177     27179         0         1
     27181     27180     27182         0         1
     27184     27183     27185         0         1
     27187     27186     27188         0         1
     27190     27189     27191         0         1
     27193     27192     27194         0         1
     27196     27195     27197         0         1
     27199     27198     27200         0         1
     27202     27201     27203         0         1
     27205     27204     27206         0         1
     27208     27207     27209         0         1
     27211     27210     27212         0         1
     27214     27213     27215         0         1
     27217     27216     27218         0         1
     27220     27219     27221         0         1
     27223     27222     27224         0         1
     27226     27225     27227         0         1
     27229     27228     27230         0         1
     27232     27231     27233         0         1
     27235     27234     27236         0         1
     27238     27237     27239         0         1
     27241     27240     27242         0         1
     27244     27243     27245         0         1
     27247     27246     27248         0         1
     27250     27249     27251         0         1
     27253     27252     27254         0         1
     27256     27255     27257         0         1
     27259     27258     27260         0         1
     27262     27261     27263         0         1
     27265     27264     27266         0         1
     27268     27267     27269         0         1
     27271     27270     27272         0         1
     27274     27273     27275         0         1
     27277     27276     27278         0         1
     27280     27279     27281         0         1
     27283     27282     27284         0         1
     27286     27285     27287         0         1
     27289     27288     27290         0         1
     27292     27291     27293         0         1
     27295     27294     27296         0         1
     27298     27297     27299         0         1
     27301     27300     27302         0         1
     27304     27303     27305         0         1
     27307     27306     27308         0         1
     27310     27309     27311         0         1
     27313     27312     27314         0         1
     27316     27315     27317         0         1
     27319     27318     27320         0         1
     27322     27321     27323         0         1
     27325     27324     27326         0         1
     27328     27327     27329         0         1
     27331     27330     27332         0         1
     27334     27333     27335         0         1
     27337     27336     27338         0         1
     27340     27339     27341         0         1
     27343     27342     27344         0         1
     27346     27345     27347         0         1
     27349     27348     27350         0         1
     27352     27351     27353         0         1
     27355     27354     27356         0         1
     27358     27357     27359         0         1
     27361     27360     27362         0         1
     27364     27363     27365         0         1
     27367     27366     27368         0         1
     27370     27369     27371         0         1
     27373     27372     27374         0         1
     27376     27375     27377         0         1
     27379     27378     27380         0         1
     27382     27381     27383         0         1
     27385     27384     27386         0         1
     27388     27387     27389         0         1
     27391     27390     27392         0         1
     27394     27393     27395         0         1
     27397     27396     27398         0         1
     27400     27399     27401         0         1
     27403     27402     27404         0         1
     27406     27405     27407         0         1
     27409     27408     27410         0         1
     27412     27411     27413         0         1
     27415     27414     27416         0         1
     27418     27417     27419         0         1
     27421     27420     27422         0         1
     27424     27423     27425         0         1
     27427     27426     27428         0         1
     27430     27429     27431         0         1
     27433     27432     27434         0         1
     27436     27435     27437         0         1
     27439     27438     27440         0         1
     27442     27441     27443         0         1
     27445     27444     27446         0         1
     27448     27447     27449         0         1
     27451     27450     27452         0         1
     27454     27453     27455         0         1
     27457     27456     27458         0         1
     27460     27459     27461         0         1
     27463     27462     27464         0         1
     27466     27465     27467         0         1
     27469     27468     27470         0         1
     27472     27471     27473         0         1
     27475     27474     27476         0         1
     27478     27477     27479         0         1
     27481     27480     27482         0         1
     27484     27483     27485         0         1
     27487     27486     27488         0         1
     27490     27489     27491         0         1
     27493     27492     27494         0         1
     27496     27495     27497         0         1
     27499     27498     27500         0         1
     27502     27501     27503         0         1
     27505     27504     27506         0         1
     27508     27507     27509         0         1
     27511     27510     27512         0         1
     27514     27513     27515         0         1
     27517     27516     27518         0         1
     27520     27519     27521         0         1
     27523     27522     27524         0         1
     27526     27525     27527         0         1
     27529     27528     27530         0         1
     27532     27531     27533         0         1
     27535     27534     27536         0         1
     27538     27537     27539         0         1
     27541     27540     27542         0         1
     27544     27543     27545         0         1
     27547     27546     27548         0         1
     27550     27549     27551         0         1
     27553     27552     27554         0         1
     27556     27555     27557         0         1
     27559     27558     27560         0         1
     27562     27561     27563         0         1
     27565     27564     27566         0         1
     27568     27567     27569         0         1
     27571     27570     27572         0         1
     27574     27573     27575         0         1
     27577     27576     27578         0         1
     27580     27579     27581         0         1
     27583     27582     27584         0         1
     27586     27585     27587         0         1
     27589     27588     27590         0         1
     27592     27591     27593         0         1
     27595     27594     27596         0         1
     27598     27597     27599         0         1
     27601     27600     27602         0         1
     27604     27603     27605         0         1
     27607     27606     27608         0         1
     27610     27609     27611         0         1
     27613     27612     27614         0         1
     27616     27615     27617         0         1
     27619     27618     27620         0         1
     27622     27621     27623         0         1
     27625     27624     27626         0         1
     27628     27627     27629         0         1
     27631     27630     27632         0         1
     27634     27633     27635         0         1
     27637     27636     27638         0         1
     27640     27639     27641         0         1
     27643     27642     27644         0         1
     27646     27645     27647         0         1
     27649     27648     27650         0         1
     27652     27651     27653         0         1
     27655     27654     27656         0         1
     27658     27657     27659         0         1
     27661     27660     27662         0         1
     27664     27663     27665         0         1
     27667     27666     27668         0         1
     27670     27669     27671         0         1
     27673     27672     27674         0         1
     27676     27675     27677         0         1
     27679     27678     27680         0         1
     27682     27681     27683         0         1
     27685     27684     27686         0         1
     27688     27687     27689         0         1
     27691     27690     27692         0         1
     27694     27693     27695         0         1
     27697     27696     27698         0         1
     27700     27699     27701         0         1
     27703     27702     27704         0         1
     27706     27705     27707         0         1
     27709     27708     27710         0         1
     27712     27711     27713         0         1
     27715     27714     27716         0         1
     27718     27717     27719         0         1
     27721     27720     27722         0         1
     27724     27723     27725         0         1
     27727     27726     27728         0         1
     27730     27729     27731         0         1
     27733     27732     27734         0         1
     27736     27735     27737         0         1
     27739     27738     27740         0         1
     27742     27741     27743         0         1
     27745     27744     27746         0         1
     27748     27747     27749         0         1
     27751     27750     27752         0         1
     27754     27753     27755         0         1
     27757     27756     27758         0         1
     27760     27759     27761         0         1
     27763     27762     27764         0         1
     27766     27765     27767         0         1
     27769     27768     27770         0         1
     27772     27771     27773         0         1
     27775     27774     27776         0         1
     27778     27777     27779         0         1
     27781     27780     27782         0         1
     27784     27783     27785         0         1
     27787     27786     27788         0         1
     27790     27789     27791         0         1
     27793     27792     27794         0         1
     27796     27795     27797         0         1
     27799     27798     27800         0         1
     27802     27801     27803         0         1
     27805     27804     27806         0         1
     27808     27807     27809         0         1
     27811     27810     27812         0         1
     27814     27813     27815         0         1
     27817     27816     27818         0         1
     27820     27819     27821         0         1
     27823     27822     27824         0         1
     27826     27825     27827         0         1
     27829     27828     27830         0         1
     27832     27831     27833         0         1
     27835     27834     27836         0         1
     27838     27837     27839         0         1
     27841     27840     27842         0         1
     27844     27843     27845         0         1
     27847     27846     27848         0         1
     27850     27849     27851         0         1
     27853     27852     27854         0         1
     27856     27855     27857         0         1
     27859     27858     27860         0         1
     27862     27861     27863         0         1
     27865     27864     27866         0         1
     27868     27867     27869         0         1
     27871     27870     27872         0         1
     27874     27873     27875         0         1
     27877     27876     27878         0         1
     27880     27879     27881         0         1
     27883     27882     27884         0         1
     27886     27885     27887         0         1
     27889     27888     27890         0         1
     27892     27891     27893         0         1
     27895     27894     27896         0         1
     27898     27897     27899         0         1
     27901     27900     27902         0         1
     27904     27903     27905         0         1
     27907     27906     27908         0         1
     27910     27909     27911         0         1
     27913     27912     27914         0         1
     27916     27915     27917         0         1
     27919     27918     27920         0         1
     27922     27921     27923         0         1
     27925     27924     27926         0         1
     27928     27927     27929         0         1
     27931     27930     27932         0         1
     27934     27933     27935         0         1
     27937     27936     27938         0         1
     27940     27939     27941         0         1
     27943     27942     27944         0         1
     27946     27945     27947         0         1
     27949     27948     27950         0         1
     27952     27951     27953         0         1
     27955     27954     27956         0         1
     27958     27957     27959         0         1
     27961     27960     27962         0         1
     27964     27963     27965         0         1
     27967     27966     27968         0         1
     27970     27969     27971         0         1
     27973     27972     27974         0         1
     27976     27975     27977         0         1
     27979     27978     27980         0         1
     27982     27981     27983         0         1
     27985     27984     27986         0         1
     27988     27987     27989         0         1
     27991     27990     27992         0         1
     27994     27993     27995         0         1
     27997     27996     27998         0         1
     28000     27999     28001         0         1
     28003     28002     28004         0         1
     28006     28005     28007         0         1
     28009     28008     28010         0         1
     28012     28011     28013         0         1
     28015     28014     28016         0         1
     28018     28017     28019         0         1
     28021     28020     28022         0         1
     28024     28023     28025         0         1
     28027     28026     28028         0         1
     28030     28029     28031         0         1
     28033     28032     28034         0         1
     28036     28035     28037         0         1
     28039     28038     28040         0         1
     28042     28041     28043         0         1
     28045     28044     28046         0         1
     28048     28047     28049         0         1
     28051     28050     28052         0         1
     28054     28053     28055         0         1
     28057     28056     28058         0         1
     28060     28059     28061         0         1
     28063     28062     28064         0         1
     28066     28065     28067         0         1
     28069     28068     28070         0         1
     28072     28071     28073         0         1
     28075     28074     28076         0         1
     28078     28077     28079         0         1
     28081     28080     28082         0         1
     28084     28083     28085         0         1
     28087     28086     28088         0         1
     28090     28089     28091         0         1
     28093     28092     28094         0         1
     28096     28095     28097         0         1
     28099     28098     28100         0         1
     28102     28101     28103         0         1
     28105     28104     28106         0         1
     28108     28107     28109         0         1
     28111     28110     28112         0         1
     28114     28113     28115         0         1
     28117     28116     28118         0         1
     28120     28119     28121         0         1
     28123     28122     28124         0         1
     28126     28125     28127         0         1
     28129     28128     28130         0         1
     28132     28131     28133         0         1
     28135     28134     28136         0         1
     28138     28137     28139         0         1
     28141     28140     28142         0         1
     28144     28143     28145         0         1
     28147     28146     28148         0         1
     28150     28149     28151         0         1
     28153     28152     28154         0         1
     28156     28155     28157         0         1
     28159     28158     28160         0         1
     28162     28161     28163         0         1
     28165     28164     28166         0         1
     28168     28167     28169         0         1
     28171     28170     28172         0         1
     28174     28173     28175         0         1
     28177     28176     28178         0         1
     28180     28179     28181         0         1
     28183     28182     28184         0         1
     28186     28185     28187         0         1
     28189     28188     28190         0         1
     28192     28191     28193         0         1
     28195     28194     28196         0         1
     28198     28197     28199         0         1
     28201     28200     28202         0         1
     28204     28203     28205         0         1
     28207     28206     28208         0         1
     28210     28209     28211         0         1
     28213     28212     28214         0         1
     28216     28215     28217         0         1
     28219     28218     28220         0         1
     28222     28221     28223         0         1
     28225     28224     28226         0         1
     28228     28227     28229         0         1
     28231     28230     28232         0         1
     28234     28233     28235         0         1
     28237     28236     28238         0         1
     28240     28239     28241         0         1
     28243     28242     28244         0         1
     28246     28245     28247         0         1
     28249     28248     28250         0         1
     28252     28251     28253         0         1
     28255     28254     28256         0         1
     28258     28257     28259         0         1
     28261     28260     28262         0         1
     28264     28263     28265         0         1
     28267     28266     28268         0         1
     28270     28269     28271         0         1
     28273     28272     28274         0         1
     28276     28275     28277         0         1
     28279     28278     28280         0         1
     28282     28281     28283         0         1
     28285     28284     28286         0         1
     28288     28287     28289         0         1
     28291     28290     28292         0         1
     28294     28293     28295         0         1
     28297     28296     28298         0         1
     28300     28299     28301         0         1
     28303     28302     28304         0         1
     28306     28305     28307         0         1
     28309     28308     28310         0         1
     28312     28311     28313         0         1
     28315     28314     28316         0         1
     28318     28317     28319         0         1
     28321     28320     28322         0         1
     28324     28323     28325         0         1
     28327     28326     28328         0         1
     28330     28329     28331         0         1
     28333     28332     28334         0         1
     28336     28335     28337         0         1
     28339     28338     28340         0         1
     28342     28341     28343         0         1
     28345     28344     28346         0         1
     28348     28347     28349         0         1
     28351     28350     28352         0         1
     28354     28353     28355         0         1
     28357     28356     28358         0         1
     28360     28359     28361         0         1
     28363     28362     28364         0         1
     28366     28365     28367         0         1
     28369     28368     28370         0         1
     28372     28371     28373         0         1
     28375     28374     28376         0         1
     28378     28377     28379         0         1
     28381     28380     28382         0         1
     28384     28383     28385         0         1
     28387     28386     28388         0         1
     28390     28389     28391         0         1
     28393     28392     28394         0         1
     28396     28395     28397         0         1
     28399     28398     28400         0         1
     28402     28401     28403         0         1
     28405     28404     28406         0         1
     28408     28407     28409         0         1
     28411     28410     28412         0         1
     28414     28413     28415         0         1
     28417     28416     28418         0         1
     28420     28419     28421         0         1
     28423     28422     28424         0         1
     28426     28425     28427         0         1
     28429     28428     28430         0         1
     28432     28431     28433         0         1
     28435     28434     28436         0         1
     28438     28437     28439         0         1
     28441     28440     28442         0         1
     28444     28443     28445         0         1
     28447     28446     28448         0         1
     28450     28449     28451         0         1
     28453     28452     28454         0         1
     28456     28455     28457         0         1
     28459     28458     28460         0         1
     28462     28461     28463         0         1
     28465     28464     28466         0         1
     28468     28467     28469         0         1
     28471     28470     28472         0         1
     28474     28473     28475         0         1
     28477     28476     28478         0         1
     28480     28479     28481         0         1
     28483     28482     28484         0         1
     28486     28485     28487         0         1
     28489     28488     28490         0         1
     28492     28491     28493         0         1
     28495     28494     28496         0         1
     28498     28497     28499         0         1
     28501     28500     28502         0         1
     28504     28503     28505         0         1
     28507     28506     28508         0         1
     28510     28509     28511         0         1
     28513     28512     28514         0         1
     28516     28515     28517         0         1
     28519     28518     28520         0         1
     28522     28521     28523         0         1
     28525     28524     28526         0         1
     28528     28527     28529         0         1
     28531     28530     28532         0         1
     28534     28533     28535         0         1
     28537     28536     28538         0         1
     28540     28539     28541         0         1
     28543     28542     28544         0         1
     28546     28545     28547         0         1
     28549     28548     28550         0         1
     28552     28551     28553         0         1
     28555     28554     28556         0         1
     28558     28557     28559         0         1
     28561     28560     28562         0         1
     28564     28563     28565         0         1
     28567     28566     28568         0         1
     28570     28569     28571         0         1
     28573     28572     28574         0         1
     28576     28575     28577         0         1
     28579     28578     28580         0         1
     28582     28581     28583         0         1
     28585     28584     28586         0         1
     28588     28587     28589         0         1
     28591     28590     28592         0         1
     28594     28593     28595         0         1
     28597     28596     28598         0         1
     28600     28599     28601         0         1
     28603     28602     28604         0         1
     28606     28605     28607         0         1
     28609     28608     28610         0         1
     28612     28611     28613         0         1
     28615     28614     28616         0         1
     28618     28617     28619         0         1
     28621     28620     28622         0         1
     28624     28623     28625         0         1
     28627     28626     28628         0         1
     28630     28629     28631         0         1
     28633     28632     28634         0         1
     28636     28635     28637         0         1
     28639     28638     28640         0         1
     28642     28641     28643         0         1
     28645     28644     28646         0         1
     28648     28647     28649         0         1
     28651     28650     28652         0         1
     28654     28653     28655         0         1
     28657     28656     28658         0         1
     28660     28659     28661         0         1
     28663     28662     28664         0         1
     28666     28665     28667         0         1
     28669     28668     28670         0         1
     28672     28671     28673         0         1
     28675     28674     28676         0         1
     28678     28677     28679         0         1
     28681     28680     28682         0         1
     28684     28683     28685         0         1
     28687     28686     28688         0         1
     28690     28689     28691         0         1
     28693     28692     28694         0         1
     28696     28695     28697         0         1
     28699     28698     28700         0         1
     28702     28701     28703         0         1
     28705     28704     28706         0         1
     28708     28707     28709         0         1
     28711     28710     28712         0         1
     28714     28713     28715         0         1
     28717     28716     28718         0         1
     28720     28719     28721         0         1
     28723     28722     28724         0         1
     28726     28725     28727         0         1
     28729     28728     28730         0         1
     28732     28731     28733         0         1
     28735     28734     28736         0         1
     28738     28737     28739         0         1
     28741     28740     28742         0         1
     28744     28743     28745         0         1
     28747     28746     28748         0         1
     28750     28749     28751         0         1
     28753     28752     28754         0         1
     28756     28755     28757         0         1
     28759     28758     28760         0         1
     28762     28761     28763         0         1
     28765     28764     28766         0         1
     28768     28767     28769         0         1
     28771     28770     28772         0         1
     28774     28773     28775         0         1
     28777     28776     28778         0         1
     28780     28779     28781         0         1
     28783     28782     28784         0         1
     28786     28785     28787         0         1
     28789     28788     28790         0         1
     28792     28791     28793         0         1
     28795     28794     28796         0         1
     28798     28797     28799         0         1
     28801     28800     28802         0         1
     28804     28803     28805         0         1
     28807     28806     28808         0         1
     28810     28809     28811         0         1
     28813     28812     28814         0         1
     28816     28815     28817         0         1
     28819     28818     28820         0         1
     28822     28821     28823         0         1
     28825     28824     28826         0         1
     28828     28827     28829         0         1
     28831     28830     28832         0         1
     28834     28833     28835         0         1
     28837     28836     28838         0         1
     28840     28839     28841         0         1
     28843     28842     28844         0         1
     28846     28845     28847         0         1
     28849     28848     28850         0         1
     28852     28851     28853         0         1
     28855     28854     28856         0         1
     28858     28857     28859         0         1
     28861     28860     28862         0         1
     28864     28863     28865         0         1
     28867     28866     28868         0         1
     28870     28869     28871         0         1
     28873     28872     28874         0         1
     28876     28875     28877         0         1
     28879     28878     28880         0         1
     28882     28881     28883         0         1
     28885     28884     28886         0         1
     28888     28887     28889         0         1
     28891     28890     28892         0         1
     28894     28893     28895         0         1
     28897     28896     28898         0         1
     28900     28899     28901         0         1
     28903     28902     28904         0         1
     28906     28905     28907         0         1
     28909     28908     28910         0         1
     28912     28911     28913         0         1
     28915     28914     28916         0         1
     28918     28917     28919         0         1
     28921     28920     28922         0         1
     28924     28923     28925         0         1
     28927     28926     28928         0         1
     28930     28929     28931         0         1
     28933     28932     28934         0         1
     28936     28935     28937         0         1
     28939     28938     28940         0         1
     28942     28941     28943         0         1
     28945     28944     28946         0         1
     28948     28947     28949         0         1
     28951     28950     28952         0         1
     28954     28953     28955         0         1
     28957     28956     28958         0         1
     28960     28959     28961         0         1
     28963     28962     28964         0         1
     28966     28965     28967         0         1
     28969     28968     28970         0         1
     28972     28971     28973         0         1
     28975     28974     28976         0         1
     28978     28977     28979         0         1
     28981     28980     28982         0         1
     28984     28983     28985         0         1
     28987     28986     28988         0         1
     28990     28989     28991         0         1
     28993     28992     28994         0         1
     28996     28995     28997         0         1
     28999     28998     29000         0         1
     29002     29001     29003         0         1
     29005     29004     29006         0         1
     29008     29007     29009         0         1
     29011     29010     29012         0         1
     29014     29013     29015         0         1
     29017     29016     29018         0         1
     29020     29019     29021         0         1
     29023     29022     29024         0         1
     29026     29025     29027         0         1
     29029     29028     29030         0         1
     29032     29031     29033         0         1
     29035     29034     29036         0         1
     29038     29037     29039         0         1
     29041     29040     29042         0         1
     29044     29043     29045         0         1
     29047     29046     29048         0         1
     29050     29049     29051         0         1
     29053     29052     29054         0         1
     29056     29055     29057         0         1
     29059     29058     29060         0         1
     29062     29061     29063         0         1
     29065     29064     29066         0         1
     29068     29067     29069         0         1
     29071     29070     29072         0         1
     29074     29073     29075         0         1
     29077     29076     29078         0         1
     29080     29079     29081         0         1
     29083     29082     29084         0         1
     29086     29085     29087         0         1
     29089     29088     29090         0         1
     29092     29091     29093         0         1
     29095     29094     29096         0         1
     29098     29097     29099         0         1
     29101     29100     29102         0         1
     29104     29103     29105         0         1
     29107     29106     29108         0         1
     29110     29109     29111         0         1
     29113     29112     29114         0         1
     29116     29115     29117         0         1
     29119     29118     29120         0         1
     29122     29121     29123         0         1
     29125     29124     29126         0         1
     29128     29127     29129         0         1
     29131     29130     29132         0         1
     29134     29133     29135         0         1
     29137     29136     29138         0         1
     29140     29139     29141         0         1
     29143     29142     29144         0         1
     29146     29145     29147         0         1
     29149     29148     29150         0         1
     29152     29151     29153         0         1
     29155     29154     29156         0         1
     29158     29157     29159         0         1
     29161     29160     29162         0         1
     29164     29163     29165         0         1
     29167     29166     29168         0         1
     29170     29169     29171         0         1
     29173     29172     29174         0         1
     29176     29175     29177         0         1
     29179     29178     29180         0         1
     29182     29181     29183         0         1
     29185     29184     29186         0         1
     29188     29187     29189         0         1
     29191     29190     29192         0         1
     29194     29193     29195         0         1
     29197     29196     29198         0         1
     29200     29199     29201         0         1
     29203     29202     29204         0         1
     29206     29205     29207         0         1
     29209     29208     29210         0         1
     29212     29211     29213         0         1
     29215     29214     29216         0         1
     29218     29217     29219         0         1
     29221     29220     29222         0         1
     29224     29223     29225         0         1
     29227     29226     29228         0         1
     29230     29229     29231         0         1
     29233     29232     29234         0         1
     29236     29235     29237         0         1
     29239     29238     29240         0         1
     29242     29241     29243         0         1
     29245     29244     29246         0         1
     29248     29247     29249         0         1
     29251     29250     29252         0         1
     29254     29253     29255         0         1
     29257     29256     29258         0         1
     29260     29259     29261         0         1
     29263     29262     29264         0         1
     29266     29265     29267         0         1
     29269     29268     29270         0         1
     29272     29271     29273         0         1
     29275     29274     29276         0         1
     29278     29277     29279         0         1
     29281     29280     29282         0         1
     29284     29283     29285         0         1
     29287     29286     29288         0         1
     29290     29289     29291         0         1
     29293     29292     29294         0         1
     29296     29295     29297         0         1
     29299     29298     29300         0         1
     29302     29301     29303         0         1
     29305     29304     29306         0         1
     29308     29307     29309         0         1
     29311     29310     29312         0         1
     29314     29313     29315         0         1
     29317     29316     29318         0         1
     29320     29319     29321         0         1
     29323     29322     29324         0         1
     29326     29325     29327         0         1
     29329     29328     29330         0         1
     29332     29331     29333         0         1
     29335     29334     29336         0         1
     29338     29337     29339         0         1
     29341     29340     29342         0         1
     29344     29343     29345         0         1
     29347     29346     29348         0         1
     29350     29349     29351         0         1
     29353     29352     29354         0         1
     29356     29355     29357         0         1
     29359     29358     29360         0         1
     29362     29361     29363         0         1
     29365     29364     29366         0         1
     29368     29367     29369         0         1
     29371     29370     29372         0         1
     29374     29373     29375         0         1
     29377     29376     29378         0         1
     29380     29379     29381         0         1
     29383     29382     29384         0         1
     29386     29385     29387         0         1
     29389     29388     29390         0         1
     29392     29391     29393         0         1
     29395     29394     29396         0         1
     29398     29397     29399         0         1
     29401     29400     29402         0         1
     29404     29403     29405         0         1
     29407     29406     29408         0         1
     29410     29409     29411         0         1
     29413     29412     29414         0         1
     29416     29415     29417         0         1
     29419     29418     29420         0         1
     29422     29421     29423         0         1
     29425     29424     29426         0         1
     29428     29427     29429         0         1
     29431     29430     29432         0         1
     29434     29433     29435         0         1
     29437     29436     29438         0         1
     29440     29439     29441         0         1
     29443     29442     29444         0         1
     29446     29445     29447         0         1
     29449     29448     29450         0         1
     29452     29451     29453         0         1
     29455     29454     29456         0         1
     29458     29457     29459         0         1
     29461     29460     29462         0         1
     29464     29463     29465         0         1
     29467     29466     29468         0         1
     29470     29469     29471         0         1
     29473     29472     29474         0         1
     29476     29475     29477         0         1
     29479     29478     29480         0         1
     29482     29481     29483         0         1
     29485     29484     29486         0         1
     29488     29487     29489         0         1
     29491     29490     29492         0         1
     29494     29493     29495         0         1
     29497     29496     29498         0         1
     29500     29499     29501         0         1
     29503     29502     29504         0         1
     29506     29505     29507         0         1
     29509     29508     29510         0         1
     29512     29511     29513         0         1
     29515     29514     29516         0         1
     29518     29517     29519         0         1
     29521     29520     29522         0         1
     29524     29523     29525         0         1
     29527     29526     29528         0         1
     29530     29529     29531         0         1
     29533     29532     29534         0         1
     29536     29535     29537         0         1
     29539     29538     29540         0         1
     29542     29541     29543         0         1
     29545     29544     29546         0         1
     29548     29547     29549         0         1
     29551     29550     29552         0         1
     29554     29553     29555         0         1
     29557     29556     29558         0         1
     29560     29559     29561         0         1
     29563     29562     29564         0         1
     29566     29565     29567         0         1
     29569     29568     29570         0         1
     29572     29571     29573         0         1
     29575     29574     29576         0         1
     29578     29577     29579         0         1
     29581     29580     29582         0         1
     29584     29583     29585         0         1
     29587     29586     29588         0         1
     29590     29589     29591         0         1
     29593     29592     29594         0         1
     29596     29595     29597         0         1
     29599     29598     29600         0         1
     29602     29601     29603         0         1
     29605     29604     29606         0         1
     29608     29607     29609         0         1
     29611     29610     29612         0         1
     29614     29613     29615         0         1
     29617     29616     29618         0         1
     29620     29619     29621         0         1
     29623     29622     29624         0         1
     29626     29625     29627         0         1
     29629     29628     29630         0         1
     29632     29631     29633         0         1
     29635     29634     29636         0         1
     29638     29637     29639         0         1
     29641     29640     29642         0         1
     29644     29643     29645         0         1
     29647     29646     29648         0         1
     29650     29649     29651         0         1
     29653     29652     29654         0         1
     29656     29655     29657         0         1
     29659     29658     29660         0         1
     29662     29661     29663         0         1
     29665     29664     29666         0         1
     29668     29667     29669         0         1
     29671     29670     29672         0         1
     29674     29673     29675         0         1
     29677     29676     29678         0         1
     29680     29679     29681         0         1
     29683     29682     29684         0         1
     29686     29685     29687         0         1
     29689     29688     29690         0         1
     29692     29691     29693         0         1
     29695     29694     29696         0         1
     29698     29697     29699         0         1
     29701     29700     29702         0         1
     29704     29703     29705         0         1
     29707     29706     29708         0         1
     29710     29709     29711         0         1
     29713     29712     29714         0         1
     29716     29715     29717         0         1
     29719     29718     29720         0         1
     29722     29721     29723         0         1
     29725     29724     29726         0         1
     29728     29727     29729         0         1
     29731     29730     29732         0         1
     29734     29733     29735         0         1
     29737     29736     29738         0         1
     29740     29739     29741         0         1
     29743     29742     29744         0         1
     29746     29745     29747         0         1
     29749     29748     29750         0         1
     29752     29751     29753         0         1
     29755     29754     29756         0         1
     29758     29757     29759         0         1
     29761     29760     29762         0         1
     29764     29763     29765         0         1
     29767     29766     29768         0         1
     29770     29769     29771         0         1
     29773     29772     29774         0         1
     29776     29775     29777         0         1
     29779     29778     29780         0         1
     29782     29781     29783         0         1
     29785     29784     29786         0         1
     29788     29787     29789         0         1
     29791     29790     29792         0         1
     29794     29793     29795         0         1
     29797     29796     29798         0         1
     29800     29799     29801         0         1
     29803     29802     29804         0         1
     29806     29805     29807         0         1
     29809     29808     29810         0         1
     29812     29811     29813         0         1
     29815     29814     29816         0         1
