* EQUILIBRATED WATER
*  DATE:    10/25/22     16:31:50      CREATED BY USER: apache
*
     11040  EXT
         1         1  TIP3      OH2           -11.5065083614      -13.3252956141      -19.3667846549  W2        1               0.0000000000
         2         1  TIP3      H1            -11.4173983614      -12.3814756141      -19.4990746549  W2        1               0.0000000000
         3         1  TIP3      H2            -12.1447483614      -13.6006556141      -20.0248446549  W2        1               0.0000000000
         4         2  TIP3      OH2           -12.5733783614      -14.0702256141      -15.9479646549  W2        2               0.0000000000
         5         2  TIP3      H1            -12.6116283614      -14.7165956141      -15.2430046549  W2        2               0.0000000000
         6         2  TIP3      H2            -12.8957283614      -14.5367856141      -16.7190946549  W2        2               0.0000000000
         7         3  TIP3      OH2           -20.2048783614      -14.4560156141      -14.3549746549  W2        3               0.0000000000
         8         3  TIP3      H1            -20.1636683614      -15.0816856141      -13.6317346549  W2        3               0.0000000000
         9         3  TIP3      H2            -19.5021083614      -13.8321556141      -14.1729346549  W2        3               0.0000000000
        10         4  TIP3      OH2            -8.8673583614      -11.1311856141      -17.6464546549  W2        4               0.0000000000
        11         4  TIP3      H1             -9.3080883614      -11.8515856141      -17.1958946549  W2        4               0.0000000000
        12         4  TIP3      H2             -8.8803883614      -10.4104656141      -17.0166846549  W2        4               0.0000000000
        13         5  TIP3      OH2           -19.2815683614      -10.0061256141      -15.8200646549  W2        5               0.0000000000
        14         5  TIP3      H1            -19.6510483614      -10.8080756141      -16.1896346549  W2        5               0.0000000000
        15         5  TIP3      H2            -18.3404583614      -10.1746356141      -15.7737246549  W2        5               0.0000000000
        16         6  TIP3      OH2           -22.6715183614      -16.3458656141      -20.4271846549  W2        6               0.0000000000
        17         6  TIP3      H1            -23.1191783614      -15.4999956141      -20.4455346549  W2        6               0.0000000000
        18         6  TIP3      H2            -23.2323983614      -16.9254456141      -20.9426746549  W2        6               0.0000000000
        19         7  TIP3      OH2           -21.9609083614      -14.1839056141      -18.3013846549  W2        7               0.0000000000
        20         7  TIP3      H1            -21.7475583614      -14.9537456141      -17.7740846549  W2        7               0.0000000000
        21         7  TIP3      H2            -21.2231483614      -14.0942356141      -18.9046246549  W2        7               0.0000000000
        22         8  TIP3      OH2           -11.7558083614       -6.0270156141      -17.4344146549  W2        8               0.0000000000
        23         8  TIP3      H1            -11.1361683614       -6.7035456141      -17.7074946549  W2        8               0.0000000000
        24         8  TIP3      H2            -11.9640683614       -6.2449356141      -16.5259246549  W2        8               0.0000000000
        25         9  TIP3      OH2           -14.1839383614      -11.6380856141      -15.5418646549  W2        9               0.0000000000
        26         9  TIP3      H1            -13.8801483614      -12.3239456141      -16.1364546549  W2        9               0.0000000000
        27         9  TIP3      H2            -13.4625383614      -11.5192156141      -14.9240646549  W2        9               0.0000000000
        28        10  TIP3      OH2            -5.5209583614      -20.0365556141      -14.6812446549  W2        10              0.0000000000
        29        10  TIP3      H1             -5.4717383614      -19.4264356141      -13.9453346549  W2        10              0.0000000000
        30        10  TIP3      H2             -5.0954483614      -19.5754656141      -15.4041346549  W2        10              0.0000000000
        31        11  TIP3      OH2           -11.0432383614      -17.2438456141      -15.2143846549  W2        11              0.0000000000
        32        11  TIP3      H1            -10.9006483614      -18.1901456141      -15.1942246549  W2        11              0.0000000000
        33        11  TIP3      H2            -11.1493383614      -17.0368656141      -16.1428946549  W2        11              0.0000000000
        34        12  TIP3      OH2           -17.8884083614      -19.1422056141      -17.9419046549  W2        12              0.0000000000
        35        12  TIP3      H1            -17.8452983614      -18.2823556141      -18.3602746549  W2        12              0.0000000000
        36        12  TIP3      H2            -18.3459983614      -19.6947356141      -18.5755846549  W2        12              0.0000000000
        37        13  TIP3      OH2           -10.1661383614      -19.0116456141      -19.5410746549  W2        13              0.0000000000
        38        13  TIP3      H1             -9.5197083614      -19.3403256141      -18.9163146549  W2        13              0.0000000000
        39        13  TIP3      H2             -9.6561983614      -18.4937456141      -20.1639346549  W2        13              0.0000000000
        40        14  TIP3      OH2           -21.2682583614      -16.7456256141      -17.1797646549  W2        14              0.0000000000
        41        14  TIP3      H1            -20.6145983614      -17.2954556141      -16.7477546549  W2        14              0.0000000000
        42        14  TIP3      H2            -21.2443283614      -17.0197256141      -18.0965646549  W2        14              0.0000000000
        43        15  TIP3      OH2           -16.1118083614      -15.1954956141      -17.9646146549  W2        15              0.0000000000
        44        15  TIP3      H1            -15.4957083614      -15.7219556141      -17.4552146549  W2        15              0.0000000000
        45        15  TIP3      H2            -16.6979283614      -15.8356256141      -18.3682546549  W2        15              0.0000000000
        46        16  TIP3      OH2            -5.1294983614      -18.5586356141      -12.4452646549  W2        16              0.0000000000
        47        16  TIP3      H1             -5.8180383614      -17.9005656141      -12.5406046549  W2        16              0.0000000000
        48        16  TIP3      H2             -5.1140383614      -18.7558456141      -11.5087246549  W2        16              0.0000000000
        49        17  TIP3      OH2           -19.0782183614      -20.2243656141      -13.8678246549  W2        17              0.0000000000
        50        17  TIP3      H1            -19.2970483614      -19.6943056141      -14.6342246549  W2        17              0.0000000000
        51        17  TIP3      H2            -19.7461283614      -19.9978156141      -13.2206846549  W2        17              0.0000000000
        52        18  TIP3      OH2           -11.7092383614      -10.7242556141      -20.3239146549  W2        18              0.0000000000
        53        18  TIP3      H1            -12.0047283614      -11.0470256141      -21.1752246549  W2        18              0.0000000000
        54        18  TIP3      H2            -12.0334583614       -9.8245856141      -20.2826546549  W2        18              0.0000000000
        55        19  TIP3      OH2           -16.5090783614      -12.5487956141      -13.5804546549  W2        19              0.0000000000
        56        19  TIP3      H1            -17.2491683614      -11.9506456141      -13.4769346549  W2        19              0.0000000000
        57        19  TIP3      H2            -15.7951283614      -11.9948356141      -13.8960946549  W2        19              0.0000000000
        58        20  TIP3      OH2            -8.4022983614      -19.7207156141      -17.5604846549  W2        20              0.0000000000
        59        20  TIP3      H1             -8.6174983614      -20.4863756141      -17.0278846549  W2        20              0.0000000000
        60        20  TIP3      H2             -7.7465583614      -19.2482556141      -17.0476346549  W2        20              0.0000000000
        61        21  TIP3      OH2           -19.4844883614      -18.3321856141      -15.9156046549  W2        21              0.0000000000
        62        21  TIP3      H1            -18.8708583614      -17.6994256141      -15.5423646549  W2        21              0.0000000000
        63        21  TIP3      H2            -18.9724183614      -18.8046856141      -16.5719146549  W2        21              0.0000000000
        64        22  TIP3      OH2           -18.1016483614      -10.5844956141      -12.7933046549  W2        22              0.0000000000
        65        22  TIP3      H1            -18.1068883614       -9.7051456141      -13.1713746549  W2        22              0.0000000000
        66        22  TIP3      H2            -18.9552383614      -10.6680856141      -12.3683146549  W2        22              0.0000000000
        67        23  TIP3      OH2           -21.9805583614      -10.9137056141      -22.0113746549  W2        23              0.0000000000
        68        23  TIP3      H1            -22.2524683614      -10.6846056141      -22.9000846549  W2        23              0.0000000000
        69        23  TIP3      H2            -21.9349883614      -10.0758256141      -21.5508446549  W2        23              0.0000000000
        70        24  TIP3      OH2            -8.3555883614       -9.2921156141      -15.2985246549  W2        24              0.0000000000
        71        24  TIP3      H1             -9.2972183614       -9.2337256141      -15.1368346549  W2        24              0.0000000000
        72        24  TIP3      H2             -8.0789783614       -8.3860656141      -15.4355546549  W2        24              0.0000000000
        73        25  TIP3      OH2            -8.0548883614      -21.0055856141      -13.8811346549  W2        25              0.0000000000
        74        25  TIP3      H1             -8.7909683614      -20.3948756141      -13.9190046549  W2        25              0.0000000000
        75        25  TIP3      H2             -7.3714883614      -20.5906856141      -14.4074946549  W2        25              0.0000000000
        76        26  TIP3      OH2           -15.0517483614      -22.9188556141      -16.4153346549  W2        26              0.0000000000
        77        26  TIP3      H1            -15.1693283614      -23.8672556141      -16.4695046549  W2        26              0.0000000000
        78        26  TIP3      H2            -15.9067383614      -22.5862456141      -16.1422246549  W2        26              0.0000000000
        79        27  TIP3      OH2           -10.1034683614       -7.5107656141      -18.6733646549  W2        27              0.0000000000
        80        27  TIP3      H1             -9.6782383614       -8.2179756141      -19.1584046549  W2        27              0.0000000000
        81        27  TIP3      H2             -9.7864683614       -6.7094956141      -19.0901446549  W2        27              0.0000000000
        82        28  TIP3      OH2            -8.9438183614       -9.6099156141      -20.1647046549  W2        28              0.0000000000
        83        28  TIP3      H1             -9.2013383614      -10.2999056141      -20.7761146549  W2        28              0.0000000000
        84        28  TIP3      H2             -8.8727383614      -10.0527956141      -19.3191146549  W2        28              0.0000000000
        85        29  TIP3      OH2            -7.2577983614      -11.0432456141      -11.6873546549  W2        29              0.0000000000
        86        29  TIP3      H1             -7.1181683614      -11.6349956141      -12.4266546549  W2        29              0.0000000000
        87        29  TIP3      H2             -7.0905183614      -10.1706556141      -12.0434746549  W2        29              0.0000000000
        88        30  TIP3      OH2           -12.7852583614      -14.0812956141      -21.9147546549  W2        30              0.0000000000
        89        30  TIP3      H1            -13.4967083614      -13.5463256141      -22.2667046549  W2        30              0.0000000000
        90        30  TIP3      H2            -12.0942983614      -14.0260856141      -22.5748646549  W2        30              0.0000000000
        91        31  TIP3      OH2           -12.7313383614      -15.6238656141      -24.8762546549  W2        31              0.0000000000
        92        31  TIP3      H1            -12.0303483614      -15.6011756141      -24.2248546549  W2        31              0.0000000000
        93        31  TIP3      H2            -12.4290483614      -16.2518956141      -25.5323246549  W2        31              0.0000000000
        94        32  TIP3      OH2            -5.4158683614      -14.7034456141      -13.6213146549  W2        32              0.0000000000
        95        32  TIP3      H1             -6.0684583614      -14.0088856141      -13.5322246549  W2        32              0.0000000000
        96        32  TIP3      H2             -4.9508383614      -14.4933556141      -14.4311546549  W2        32              0.0000000000
        97        33  TIP3      OH2            -9.3794883614      -13.8719656141      -20.9631646549  W2        33              0.0000000000
        98        33  TIP3      H1            -10.1113883614      -13.6435956141      -20.3901046549  W2        33              0.0000000000
        99        33  TIP3      H2             -8.9322683614      -14.5856956141      -20.5084146549  W2        33              0.0000000000
       100        34  TIP3      OH2            -9.4821383614      -15.6977056141      -11.8954646549  W2        34              0.0000000000
       101        34  TIP3      H1             -9.4022283614      -14.9342656141      -11.3236146549  W2        34              0.0000000000
       102        34  TIP3      H2            -10.0833683614      -15.4184656141      -12.5859546549  W2        34              0.0000000000
       103        35  TIP3      OH2           -17.7341183614      -13.2413456141      -19.0806646549  W2        35              0.0000000000
       104        35  TIP3      H1            -18.0645983614      -13.6120056141      -19.8989646549  W2        35              0.0000000000
       105        35  TIP3      H2            -17.1457083614      -13.9119456141      -18.7338346549  W2        35              0.0000000000
       106        36  TIP3      OH2           -16.3673683614       -9.8132856141      -16.3994446549  W2        36              0.0000000000
       107        36  TIP3      H1            -16.4622383614      -10.3919756141      -17.1559846549  W2        36              0.0000000000
       108        36  TIP3      H2            -15.6380083614      -10.1847156141      -15.9031646549  W2        36              0.0000000000
       109        37  TIP3      OH2           -17.3675683614      -14.4727856141      -15.4471646549  W2        37              0.0000000000
       110        37  TIP3      H1            -16.8023183614      -14.3513656141      -16.2100446549  W2        37              0.0000000000
       111        37  TIP3      H2            -17.0486783614      -13.8352856141      -14.8083146549  W2        37              0.0000000000
       112        38  TIP3      OH2           -11.0583483614       -8.9695956141      -14.7131146549  W2        38              0.0000000000
       113        38  TIP3      H1            -11.2986883614       -8.3072856141      -14.0651946549  W2        38              0.0000000000
       114        38  TIP3      H2            -11.2565283614       -9.8040756141      -14.2881546549  W2        38              0.0000000000
       115        39  TIP3      OH2           -16.4874983614      -10.0735156141      -10.7299746549  W2        39              0.0000000000
       116        39  TIP3      H1            -16.7987483614       -9.2911956141      -10.2746546549  W2        39              0.0000000000
       117        39  TIP3      H2            -17.1374783614      -10.2266056141      -11.4157746549  W2        39              0.0000000000
       118        40  TIP3      OH2           -10.5085383614      -14.7096756141      -23.2780446549  W2        40              0.0000000000
       119        40  TIP3      H1             -9.9289883614      -14.5596456141      -22.5311546549  W2        40              0.0000000000
       120        40  TIP3      H2            -10.0945383614      -14.2389356141      -24.0014046549  W2        40              0.0000000000
       121        41  TIP3      OH2           -19.5675083614      -13.8754056141      -11.5014046549  W2        41              0.0000000000
       122        41  TIP3      H1            -19.4971883614      -13.2247256141      -10.8029046549  W2        41              0.0000000000
       123        41  TIP3      H2            -20.4582883614      -13.7726556141      -11.8363146549  W2        41              0.0000000000
       124        42  TIP3      OH2           -12.7820483614       -7.9728256141      -19.8427346549  W2        42              0.0000000000
       125        42  TIP3      H1            -12.3082883614       -7.6771956141      -19.0653146549  W2        42              0.0000000000
       126        42  TIP3      H2            -13.3451183614       -7.2346656141      -20.0757746549  W2        42              0.0000000000
       127        43  TIP3      OH2           -18.2479083614       -8.0020156141       -9.9665946549  W2        43              0.0000000000
       128        43  TIP3      H1            -18.2403783614       -8.1380456141      -10.9140446549  W2        43              0.0000000000
       129        43  TIP3      H2            -19.1638683614       -8.1192056141       -9.7145946549  W2        43              0.0000000000
       130        44  TIP3      OH2            -6.8096983614      -22.9596356141      -23.4650746549  W2        44              0.0000000000
       131        44  TIP3      H1             -7.7096283614      -22.8207356141      -23.1700146549  W2        44              0.0000000000
       132        44  TIP3      H2             -6.5578583614      -22.1281756141      -23.8669046549  W2        44              0.0000000000
       133        45  TIP3      OH2           -18.7438483614      -14.1719156141      -21.4913846549  W2        45              0.0000000000
       134        45  TIP3      H1            -19.0357183614      -13.4037456141      -21.9822546549  W2        45              0.0000000000
       135        45  TIP3      H2            -19.4183283614      -14.8312956141      -21.6542446549  W2        45              0.0000000000
       136        46  TIP3      OH2            -5.6205583614       -8.5933956141      -25.0886846549  W2        46              0.0000000000
       137        46  TIP3      H1             -5.5472083614       -7.6543756141      -24.9181546549  W2        46              0.0000000000
       138        46  TIP3      H2             -4.7150483614       -8.8985356141      -25.1449546549  W2        46              0.0000000000
       139        47  TIP3      OH2           -22.6508383614      -11.8089956141      -12.6764046549  W2        47              0.0000000000
       140        47  TIP3      H1            -23.1519983614      -11.8370556141      -13.4914346549  W2        47              0.0000000000
       141        47  TIP3      H2            -22.6454683614      -12.7146756141      -12.3666746549  W2        47              0.0000000000
       142        48  TIP3      OH2           -22.9005683614       -9.0286156141      -15.7923846549  W2        48              0.0000000000
       143        48  TIP3      H1            -21.9545083614       -9.1729156141      -15.8114346549  W2        48              0.0000000000
       144        48  TIP3      H2            -23.0129383614       -8.2443356141      -15.2552646549  W2        48              0.0000000000
       145        49  TIP3      OH2            -4.7027183614       -8.3626456141      -10.1100146549  W2        49              0.0000000000
       146        49  TIP3      H1             -4.7520383614       -9.3178356141      -10.1472546549  W2        49              0.0000000000
       147        49  TIP3      H2             -5.5294883614       -8.0951156141       -9.7086346549  W2        49              0.0000000000
       148        50  TIP3      OH2           -13.7243183614       -8.7887256141      -11.2338746549  W2        50              0.0000000000
       149        50  TIP3      H1            -13.6368583614       -7.9622656141      -10.7589646549  W2        50              0.0000000000
       150        50  TIP3      H2            -14.5878083614       -9.1183456141      -10.9849446549  W2        50              0.0000000000
       151        51  TIP3      OH2           -13.3097383614       -5.0163556141      -21.4278146549  W2        51              0.0000000000
       152        51  TIP3      H1            -13.3851383614       -5.1376356141      -22.3742946549  W2        51              0.0000000000
       153        51  TIP3      H2            -13.2768683614       -4.0670856141      -21.3093546549  W2        51              0.0000000000
       154        52  TIP3      OH2           -19.6563583614       -6.2276556141      -19.6469146549  W2        52              0.0000000000
       155        52  TIP3      H1            -19.5043183614       -6.5756156141      -18.7682646549  W2        52              0.0000000000
       156        52  TIP3      H2            -20.5073183614       -6.5839256141      -19.9021946549  W2        52              0.0000000000
       157        53  TIP3      OH2           -10.2081383614       -5.8623356141      -24.4255746549  W2        53              0.0000000000
       158        53  TIP3      H1             -9.8332983614       -6.6067256141      -24.8963146549  W2        53              0.0000000000
       159        53  TIP3      H2            -10.2037683614       -6.1322756141      -23.5072446549  W2        53              0.0000000000
       160        54  TIP3      OH2           -10.5393283614       -5.9366256141      -21.6763546549  W2        54              0.0000000000
       161        54  TIP3      H1            -11.4743483614       -5.8364356141      -21.4976546549  W2        54              0.0000000000
       162        54  TIP3      H2            -10.2591383614       -6.6460256141      -21.0980346549  W2        54              0.0000000000
       163        55  TIP3      OH2            -7.5507383614      -16.8693956141       -9.6297946549  W2        55              0.0000000000
       164        55  TIP3      H1             -7.9580583614      -16.3888356141      -10.3504646549  W2        55              0.0000000000
       165        55  TIP3      H2             -7.5101683614      -17.7747956141       -9.9377146549  W2        55              0.0000000000
       166        56  TIP3      OH2           -20.4017883614      -10.4854556141      -11.6331246549  W2        56              0.0000000000
       167        56  TIP3      H1            -20.1856583614      -10.8468956141      -10.7735446549  W2        56              0.0000000000
       168        56  TIP3      H2            -21.2573183614      -10.8600756141      -11.8427746549  W2        56              0.0000000000
       169        57  TIP3      OH2           -17.7829883614      -22.0154056141      -15.6377046549  W2        57              0.0000000000
       170        57  TIP3      H1            -18.6446183614      -22.1025856141      -16.0454146549  W2        57              0.0000000000
       171        57  TIP3      H2            -17.8054183614      -21.1593956141      -15.2099446549  W2        57              0.0000000000
       172        58  TIP3      OH2           -13.1202083614      -22.2933656141      -12.2630046549  W2        58              0.0000000000
       173        58  TIP3      H1            -12.6998983614      -22.7086556141      -11.5099446549  W2        58              0.0000000000
       174        58  TIP3      H2            -14.0532483614      -22.4720356141      -12.1458046549  W2        58              0.0000000000
       175        59  TIP3      OH2            -9.7937183614      -18.5378456141      -11.4095546549  W2        59              0.0000000000
       176        59  TIP3      H1            -10.3077683614      -18.6636256141      -10.6119546549  W2        59              0.0000000000
       177        59  TIP3      H2             -9.9492483614      -17.6255356141      -11.6539346549  W2        59              0.0000000000
       178        60  TIP3      OH2            -9.0312283614      -13.6768456141      -25.6482546549  W2        60              0.0000000000
       179        60  TIP3      H1             -8.9891483614      -13.8994556141      -26.5782546549  W2        60              0.0000000000
       180        60  TIP3      H2             -8.1820183614      -13.2781356141      -25.4582646549  W2        60              0.0000000000
       181        61  TIP3      OH2           -13.4584783614      -19.8010256141      -24.9779246549  W2        61              0.0000000000
       182        61  TIP3      H1            -13.7119983614      -19.7818656141      -24.0551146549  W2        61              0.0000000000
       183        61  TIP3      H2            -13.7152683614      -20.6724856141      -25.2793046549  W2        61              0.0000000000
       184        62  TIP3      OH2           -17.6919783614      -17.0499556141      -14.5426846549  W2        62              0.0000000000
       185        62  TIP3      H1            -18.3337683614      -17.0902256141      -13.8336746549  W2        62              0.0000000000
       186        62  TIP3      H2            -17.6547783614      -16.1234856141      -14.7803846549  W2        62              0.0000000000
       187        63  TIP3      OH2           -17.6950683614      -16.8289456141      -19.6306846549  W2        63              0.0000000000
       188        63  TIP3      H1            -18.5877783614      -17.1693356141      -19.6893046549  W2        63              0.0000000000
       189        63  TIP3      H2            -17.2444083614      -17.2058556141      -20.3863646549  W2        63              0.0000000000
       190        64  TIP3      OH2           -12.1595183614      -16.4129156141      -20.8136046549  W2        64              0.0000000000
       191        64  TIP3      H1            -12.5684883614      -15.5980556141      -21.1051246549  W2        64              0.0000000000
       192        64  TIP3      H2            -11.4388983614      -16.5529056141      -21.4278946549  W2        64              0.0000000000
       193        65  TIP3      OH2           -13.0573583614      -16.2372756141       -9.3255346549  W2        65              0.0000000000
       194        65  TIP3      H1            -13.6199783614      -16.9421156141       -9.0047546549  W2        65              0.0000000000
       195        65  TIP3      H2            -12.2310183614      -16.3580856141       -8.8577746549  W2        65              0.0000000000
       196        66  TIP3      OH2           -11.1547483614      -16.9668756141      -17.9996346549  W2        66              0.0000000000
       197        66  TIP3      H1            -11.3502983614      -16.3611956141      -18.7145746549  W2        66              0.0000000000
       198        66  TIP3      H2            -10.9734883614      -17.8003556141      -18.4340046549  W2        66              0.0000000000
       199        67  TIP3      OH2           -19.9419283614      -16.7296056141      -12.6754846549  W2        67              0.0000000000
       200        67  TIP3      H1            -19.9799883614      -16.3294456141      -11.8067746549  W2        67              0.0000000000
       201        67  TIP3      H2            -20.4328183614      -17.5463656141      -12.5851946549  W2        67              0.0000000000
       202        68  TIP3      OH2           -16.5761883614      -19.3553756141      -25.8768846549  W2        68              0.0000000000
       203        68  TIP3      H1            -17.0071183614      -19.8003656141      -25.1471446549  W2        68              0.0000000000
       204        68  TIP3      H2            -17.2943183614      -18.9837456141      -26.3891346549  W2        68              0.0000000000
       205        69  TIP3      OH2           -23.3338483614      -19.6134256141      -18.8250146549  W2        69              0.0000000000
       206        69  TIP3      H1            -22.7030783614      -19.6422156141      -18.1056246549  W2        69              0.0000000000
       207        69  TIP3      H2            -22.8844183614      -20.0385556141      -19.5554246549  W2        69              0.0000000000
       208        70  TIP3      OH2           -22.0596383614      -18.8672256141      -23.4009746549  W2        70              0.0000000000
       209        70  TIP3      H1            -21.5854683614      -18.2762356141      -23.9858846549  W2        70              0.0000000000
       210        70  TIP3      H2            -22.7769983614      -18.3369356141      -23.0539646549  W2        70              0.0000000000
       211        71  TIP3      OH2           -11.8908283614      -15.3287456141      -13.3283946549  W2        71              0.0000000000
       212        71  TIP3      H1            -11.5673483614      -15.9597756141      -13.9713446549  W2        71              0.0000000000
       213        71  TIP3      H2            -12.3308983614      -15.8635256141      -12.6676546549  W2        71              0.0000000000
       214        72  TIP3      OH2           -15.1135383614      -19.4011956141      -18.5442746549  W2        72              0.0000000000
       215        72  TIP3      H1            -16.0244283614      -19.3445156141      -18.2556746549  W2        72              0.0000000000
       216        72  TIP3      H2            -14.6082483614      -19.4616456141      -17.7335546549  W2        72              0.0000000000
       217        73  TIP3      OH2           -20.2851983614      -17.7725656141      -19.7175146549  W2        73              0.0000000000
       218        73  TIP3      H1            -21.1743983614      -17.6730156141      -20.0575546549  W2        73              0.0000000000
       219        73  TIP3      H2            -19.9887083614      -18.6142656141      -20.0637246549  W2        73              0.0000000000
       220        74  TIP3      OH2           -16.6320183614      -17.7723056141      -22.0610546549  W2        74              0.0000000000
       221        74  TIP3      H1            -15.7004683614      -17.6433056141      -21.8827446549  W2        74              0.0000000000
       222        74  TIP3      H2            -16.8469883614      -17.1028756141      -22.7105846549  W2        74              0.0000000000
       223        75  TIP3      OH2           -10.7083483614      -20.1665656141      -15.2800946549  W2        75              0.0000000000
       224        75  TIP3      H1            -11.3851883614      -20.0352556141      -14.6161246549  W2        75              0.0000000000
       225        75  TIP3      H2            -11.1938583614      -20.3216156141      -16.0903246549  W2        75              0.0000000000
       226        76  TIP3      OH2           -17.9579983614      -16.5780856141      -24.4944446549  W2        76              0.0000000000
       227        76  TIP3      H1            -18.5004883614      -16.9577056141      -25.1856846549  W2        76              0.0000000000
       228        76  TIP3      H2            -17.1245083614      -16.3836156141      -24.9230346549  W2        76              0.0000000000
       229        77  TIP3      OH2            -7.4208383614       -4.4950256141       -9.0033346549  W2        77              0.0000000000
       230        77  TIP3      H1             -7.2209683614       -4.0708356141       -9.8378046549  W2        77              0.0000000000
       231        77  TIP3      H2             -6.7654683614       -4.1512056141       -8.3962946549  W2        77              0.0000000000
       232        78  TIP3      OH2           -19.8228583614      -12.0208956141       -9.3952846549  W2        78              0.0000000000
       233        78  TIP3      H1            -19.0906183614      -11.7663056141       -8.8338346549  W2        78              0.0000000000
       234        78  TIP3      H2            -20.6029883614      -11.8163556141       -8.8797446549  W2        78              0.0000000000
       235        79  TIP3      OH2           -13.7935683614      -16.6138956141      -16.6573146549  W2        79              0.0000000000
       236        79  TIP3      H1            -13.2292283614      -17.1602356141      -17.2043546549  W2        79              0.0000000000
       237        79  TIP3      H2            -13.9412283614      -17.1357056141      -15.8685546549  W2        79              0.0000000000
       238        80  TIP3      OH2           -18.7915983614      -20.4772856141      -20.2388346549  W2        80              0.0000000000
       239        80  TIP3      H1            -19.1086483614      -21.3797556141      -20.2742946549  W2        80              0.0000000000
       240        80  TIP3      H2            -18.0101883614      -20.4755456141      -20.7916746549  W2        80              0.0000000000
       241        81  TIP3      OH2           -15.1669783614      -18.2252856141      -14.2432746549  W2        81              0.0000000000
       242        81  TIP3      H1            -16.0024483614      -17.7713356141      -14.1330346549  W2        81              0.0000000000
       243        81  TIP3      H2            -14.6429183614      -17.9494356141      -13.4912846549  W2        81              0.0000000000
       244        82  TIP3      OH2           -14.6227183614      -12.0125156141      -22.5586346549  W2        82              0.0000000000
       245        82  TIP3      H1            -15.3676183614      -12.5199856141      -22.8808446549  W2        82              0.0000000000
       246        82  TIP3      H2            -14.7569983614      -11.9637156141      -21.6121546549  W2        82              0.0000000000
       247        83  TIP3      OH2            -7.4728283614      -12.8796956141      -13.7718746549  W2        83              0.0000000000
       248        83  TIP3      H1             -6.8309483614      -12.4230656141      -14.3156546549  W2        83              0.0000000000
       249        83  TIP3      H2             -8.3031383614      -12.7664556141      -14.2344646549  W2        83              0.0000000000
       250        84  TIP3      OH2           -10.7250383614      -19.1985256141      -24.3593746549  W2        84              0.0000000000
       251        84  TIP3      H1            -11.6636183614      -19.0869656141      -24.5104946549  W2        84              0.0000000000
       252        84  TIP3      H2            -10.4278283614      -18.3418356141      -24.0528046549  W2        84              0.0000000000
       253        85  TIP3      OH2           -13.1035083614      -11.8281856141      -11.3217246549  W2        85              0.0000000000
       254        85  TIP3      H1            -13.4488983614      -12.2099456141      -10.5147646549  W2        85              0.0000000000
       255        85  TIP3      H2            -13.3034983614      -10.8948256141      -11.2504346549  W2        85              0.0000000000
       256        86  TIP3      OH2           -10.0066883614      -17.3312556141      -22.6986346549  W2        86              0.0000000000
       257        86  TIP3      H1             -9.1147883614      -17.4687556141      -22.3795146549  W2        86              0.0000000000
       258        86  TIP3      H2             -9.9503283614      -16.5406456141      -23.2352846549  W2        86              0.0000000000
       259        87  TIP3      OH2           -19.4978883614      -12.7175156141      -16.7888446549  W2        87              0.0000000000
       260        87  TIP3      H1            -18.7531683614      -12.7199456141      -17.3901946549  W2        87              0.0000000000
       261        87  TIP3      H2            -19.4202283614      -13.5411356141      -16.3073346549  W2        87              0.0000000000
       262        88  TIP3      OH2           -12.4973083614      -10.5540856141      -23.5331746549  W2        88              0.0000000000
       263        88  TIP3      H1            -12.7924683614       -9.7272956141      -23.1516946549  W2        88              0.0000000000
       264        88  TIP3      H2            -13.2003083614      -11.1733956141      -23.3370346549  W2        88              0.0000000000
       265        89  TIP3      OH2           -22.4899183614      -14.2568256141      -11.4739946549  W2        89              0.0000000000
       266        89  TIP3      H1            -22.2670583614      -14.6748656141      -10.6422446549  W2        89              0.0000000000
       267        89  TIP3      H2            -23.0919083614      -14.8693256141      -11.8967146549  W2        89              0.0000000000
       268        90  TIP3      OH2           -15.4734283614      -14.7398356141       -9.2610246549  W2        90              0.0000000000
       269        90  TIP3      H1            -15.7693483614      -14.9055356141      -10.1561146549  W2        90              0.0000000000
       270        90  TIP3      H2            -14.5419083614      -14.9598056141       -9.2716346549  W2        90              0.0000000000
       271        91  TIP3      OH2           -10.8531483614       -9.3666356141      -11.3712246549  W2        91              0.0000000000
       272        91  TIP3      H1            -11.7537183614       -9.1833756141      -11.6388346549  W2        91              0.0000000000
       273        91  TIP3      H2            -10.8190383614       -9.1077056141      -10.4503446549  W2        91              0.0000000000
       274        92  TIP3      OH2            -5.1218183614      -17.1218456141      -23.0039646549  W2        92              0.0000000000
       275        92  TIP3      H1             -5.6761883614      -17.5180456141      -23.6762146549  W2        92              0.0000000000
       276        92  TIP3      H2             -5.0214583614      -16.2113256141      -23.2816346549  W2        92              0.0000000000
       277        93  TIP3      OH2            -5.1586183614      -11.3216756141      -10.1668146549  W2        93              0.0000000000
       278        93  TIP3      H1             -6.0097683614      -11.0832956141      -10.5341746549  W2        93              0.0000000000
       279        93  TIP3      H2             -4.5682783614      -11.3383556141      -10.9201046549  W2        93              0.0000000000
       280        94  TIP3      OH2            -6.8266483614       -8.3358056141      -22.5387546549  W2        94              0.0000000000
       281        94  TIP3      H1             -7.1995383614       -9.1614256141      -22.2296946549  W2        94              0.0000000000
       282        94  TIP3      H2             -6.5492983614       -8.5188656141      -23.4364146549  W2        94              0.0000000000
       283        95  TIP3      OH2            -9.6662583614      -13.5278556141      -15.5175646549  W2        95              0.0000000000
       284        95  TIP3      H1            -10.5945683614      -13.7596656141      -15.5446346549  W2        95              0.0000000000
       285        95  TIP3      H2             -9.2151483614      -14.3048756141      -15.8476846549  W2        95              0.0000000000
       286        96  TIP3      OH2           -17.1229483614       -9.1996956141      -19.3846946549  W2        96              0.0000000000
       287        96  TIP3      H1            -16.5957283614       -8.4262556141      -19.5848146549  W2        96              0.0000000000
       288        96  TIP3      H2            -18.0030983614       -8.9747756141      -19.6862946549  W2        96              0.0000000000
       289        97  TIP3      OH2           -21.3681783614      -14.3372856141      -24.7974546549  W2        97              0.0000000000
       290        97  TIP3      H1            -20.7521883614      -13.7105656141      -24.4179746549  W2        97              0.0000000000
       291        97  TIP3      H2            -22.2299183614      -14.0213056141      -24.5258046549  W2        97              0.0000000000
       292        98  TIP3      OH2           -15.6957183614      -11.5367056141      -19.8082646549  W2        98              0.0000000000
       293        98  TIP3      H1            -15.9367183614      -10.6112656141      -19.7667346549  W2        98              0.0000000000
       294        98  TIP3      H2            -16.4363583614      -11.9955756141      -19.4118746549  W2        98              0.0000000000
       295        99  TIP3      OH2           -15.1810583614       -7.3873456141      -13.4931546549  W2        99              0.0000000000
       296        99  TIP3      H1            -14.8185883614       -6.5327856141      -13.7267146549  W2        99              0.0000000000
       297        99  TIP3      H2            -14.6495383614       -7.6791856141      -12.7525246549  W2        99              0.0000000000
       298       100  TIP3      OH2           -17.0126383614       -6.5149456141      -20.2630446549  W2        100             0.0000000000
       299       100  TIP3      H1            -17.9625883614       -6.4092056141      -20.2117146549  W2        100             0.0000000000
       300       100  TIP3      H2            -16.6608283614       -5.6942056141      -19.9182946549  W2        100             0.0000000000
       301       101  TIP3      OH2           -11.6369783614      -11.2882756141      -13.7925946549  W2        101             0.0000000000
       302       101  TIP3      H1            -12.0628483614      -11.5161056141      -12.9661946549  W2        101             0.0000000000
       303       101  TIP3      H2            -11.0563983614      -12.0270956141      -13.9750646549  W2        101             0.0000000000
       304       102  TIP3      OH2            -9.4340883614      -10.3592256141      -24.7186946549  W2        102             0.0000000000
       305       102  TIP3      H1             -9.0807783614      -10.7392456141      -23.9143446549  W2        102             0.0000000000
       306       102  TIP3      H2            -10.3827383614      -10.4527456141      -24.6317646549  W2        102             0.0000000000
       307       103  TIP3      OH2            -8.9785583614       -6.7363256141      -11.3231146549  W2        103             0.0000000000
       308       103  TIP3      H1             -9.5802383614       -7.2920356141      -11.8184846549  W2        103             0.0000000000
       309       103  TIP3      H2             -8.6971883614       -6.0693456141      -11.9493746549  W2        103             0.0000000000
       310       104  TIP3      OH2            -4.9306483614       -5.8799756141      -24.5176746549  W2        104             0.0000000000
       311       104  TIP3      H1             -4.1868583614       -5.2939256141      -24.6575146549  W2        104             0.0000000000
       312       104  TIP3      H2             -5.6248383614       -5.3113956141      -24.1844346549  W2        104             0.0000000000
       313       105  TIP3      OH2           -20.8559683614      -19.5035556141      -11.9158546549  W2        105             0.0000000000
       314       105  TIP3      H1            -21.7487383614      -19.1650156141      -11.9834546549  W2        105             0.0000000000
       315       105  TIP3      H2            -20.9546883614      -20.3589456141      -11.4977746549  W2        105             0.0000000000
       316       106  TIP3      OH2            -8.5681583614      -11.6870256141      -22.4919046549  W2        106             0.0000000000
       317       106  TIP3      H1             -8.8453983614      -12.4150956141      -21.9357946549  W2        106             0.0000000000
       318       106  TIP3      H2             -7.6408583614      -11.5678256141      -22.2866446549  W2        106             0.0000000000
       319       107  TIP3      OH2           -21.2047683614       -7.6991156141      -13.4809146549  W2        107             0.0000000000
       320       107  TIP3      H1            -20.9877383614       -8.6308756141      -13.5119446549  W2        107             0.0000000000
       321       107  TIP3      H2            -20.9584183614       -7.4246156141      -12.5976346549  W2        107             0.0000000000
       322       108  TIP3      OH2           -15.3433083614       -9.2476156141      -26.2716946549  W2        108             0.0000000000
       323       108  TIP3      H1            -15.1043283614       -9.9958056141      -26.8188046549  W2        108             0.0000000000
       324       108  TIP3      H2            -15.6121783614       -9.6354456141      -25.4389146549  W2        108             0.0000000000
       325       109  TIP3      OH2           -16.4062483614       -9.6772356141      -23.8154346549  W2        109             0.0000000000
       326       109  TIP3      H1            -16.2594483614      -10.1972556141      -23.0253446549  W2        109             0.0000000000
       327       109  TIP3      H2            -16.4090783614       -8.7704756141      -23.5088446549  W2        109             0.0000000000
       328       110  TIP3      OH2           -19.9531383614      -12.4249056141      -23.3048946549  W2        110             0.0000000000
       329       110  TIP3      H1            -20.6392083614      -12.0726556141      -22.7379246549  W2        110             0.0000000000
       330       110  TIP3      H2            -19.4303483614      -11.6619456141      -23.5514646549  W2        110             0.0000000000
       331       111  TIP3      OH2           -12.1216283614      -19.7625256141      -13.0259946549  W2        111             0.0000000000
       332       111  TIP3      H1            -11.4228383614      -19.6886556141      -12.3760246549  W2        111             0.0000000000
       333       111  TIP3      H2            -12.5024883614      -20.6270256141      -12.8717046549  W2        111             0.0000000000
       334       112  TIP3      OH2           -11.3371383614      -20.1103556141      -21.9287646549  W2        112             0.0000000000
       335       112  TIP3      H1            -11.1173083614      -19.6388156141      -22.7322246549  W2        112             0.0000000000
       336       112  TIP3      H2            -10.7787383614      -19.7160956141      -21.2587046549  W2        112             0.0000000000
       337       113  TIP3      OH2           -13.6685283614       -7.9798756141      -23.0660146549  W2        113             0.0000000000
       338       113  TIP3      H1            -14.4849183614       -7.4829056141      -23.0135846549  W2        113             0.0000000000
       339       113  TIP3      H2            -13.1388983614       -7.5045256141      -23.7061346549  W2        113             0.0000000000
       340       114  TIP3      OH2           -14.1371483614      -18.3824756141      -21.0939246549  W2        114             0.0000000000
       341       114  TIP3      H1            -13.3248883614      -17.8781556141      -21.0477546549  W2        114             0.0000000000
       342       114  TIP3      H2            -14.3818483614      -18.5275056141      -20.1799646549  W2        114             0.0000000000
       343       115  TIP3      OH2           -13.6015083614      -17.3962056141      -11.9092646549  W2        115             0.0000000000
       344       115  TIP3      H1            -13.4824783614      -16.8226656141      -11.1522246549  W2        115             0.0000000000
       345       115  TIP3      H2            -12.9460483614      -18.0842656141      -11.7944846549  W2        115             0.0000000000
       346       116  TIP3      OH2           -13.2534783614      -21.3011756141      -20.1558146549  W2        116             0.0000000000
       347       116  TIP3      H1            -13.6001283614      -20.6841156141      -19.5113846549  W2        116             0.0000000000
       348       116  TIP3      H2            -12.5947883614      -20.8006056141      -20.6372646549  W2        116             0.0000000000
       349       117  TIP3      OH2           -16.3302183614       -6.9361556141      -23.0843246549  W2        117             0.0000000000
       350       117  TIP3      H1            -16.1693483614       -6.1364056141      -23.5850646549  W2        117             0.0000000000
       351       117  TIP3      H2            -16.5274383614       -6.6295556141      -22.1992646549  W2        117             0.0000000000
       352       118  TIP3      OH2           -17.5957783614      -20.2382356141      -23.4685646549  W2        118             0.0000000000
       353       118  TIP3      H1            -17.6792983614      -19.3499256141      -23.1219246549  W2        118             0.0000000000
       354       118  TIP3      H2            -16.7057483614      -20.5035656141      -23.2368846549  W2        118             0.0000000000
       355       119  TIP3      OH2            -7.3969283614      -19.4891756141      -11.0742946549  W2        119             0.0000000000
       356       119  TIP3      H1             -8.3133483614      -19.2270056141      -11.1619246549  W2        119             0.0000000000
       357       119  TIP3      H2             -7.0614283614      -19.4922756141      -11.9707646549  W2        119             0.0000000000
       358       120  TIP3      OH2            -8.7948283614      -15.7390756141      -16.9785646549  W2        120             0.0000000000
       359       120  TIP3      H1             -9.5923883614      -16.1540556141      -17.3070646549  W2        120             0.0000000000
       360       120  TIP3      H2             -8.3497183614      -16.4297056141      -16.4875146549  W2        120             0.0000000000
       361       121  TIP3      OH2           -19.3372483614       -9.8110156141      -24.4081146549  W2        121             0.0000000000
       362       121  TIP3      H1            -18.7450983614       -9.1115356141      -24.1318746549  W2        121             0.0000000000
       363       121  TIP3      H2            -18.8779483614      -10.2440656141      -25.1276546549  W2        121             0.0000000000
       364       122  TIP3      OH2           -21.0213283614      -17.1467156141      -25.2921746549  W2        122             0.0000000000
       365       122  TIP3      H1            -21.0660683614      -16.2074056141      -25.1134746549  W2        122             0.0000000000
       366       122  TIP3      H2            -21.9090083614      -17.3822256141      -25.5619646549  W2        122             0.0000000000
       367       123  TIP3      OH2            -7.7083683614       -6.4828256141      -15.3562146549  W2        123             0.0000000000
       368       123  TIP3      H1             -7.8639383614       -5.8043856141      -16.0132846549  W2        123             0.0000000000
       369       123  TIP3      H2             -6.7757283614       -6.4108956141      -15.1531546549  W2        123             0.0000000000
       370       124  TIP3      OH2           -20.2131283614      -22.3650556141      -16.6190746549  W2        124             0.0000000000
       371       124  TIP3      H1            -20.4421483614      -22.3058056141      -17.5465746549  W2        124             0.0000000000
       372       124  TIP3      H2            -20.6557883614      -23.1565056141      -16.3126646549  W2        124             0.0000000000
       373       125  TIP3      OH2           -21.2827983614       -8.4243456141      -20.4584946549  W2        125             0.0000000000
       374       125  TIP3      H1            -22.1149383614       -7.9520756141      -20.4313546549  W2        125             0.0000000000
       375       125  TIP3      H2            -20.7369683614       -7.9145856141      -21.0571846549  W2        125             0.0000000000
       376       126  TIP3      OH2           -21.9944283614       -5.8119756141       -9.1286946549  W2        126             0.0000000000
       377       126  TIP3      H1            -21.4542083614       -6.0285756141       -8.3687746549  W2        126             0.0000000000
       378       126  TIP3      H2            -22.4756283614       -6.6173756141       -9.3184446549  W2        126             0.0000000000
       379       127  TIP3      OH2           -17.3970883614       -6.8925356141       -7.5082746549  W2        127             0.0000000000
       380       127  TIP3      H1            -16.6293683614       -7.3514556141       -7.1673546549  W2        127             0.0000000000
       381       127  TIP3      H2            -17.4184683614       -7.1185556141       -8.4381546549  W2        127             0.0000000000
       382       128  TIP3      OH2           -13.3051283614       -7.3844756141      -26.1330946549  W2        128             0.0000000000
       383       128  TIP3      H1            -13.9490283614       -8.0156156141      -25.8117246549  W2        128             0.0000000000
       384       128  TIP3      H2            -12.5432983614       -7.9156756141      -26.3647446549  W2        128             0.0000000000
       385       129  TIP3      OH2           -10.8202183614       -8.5124256141       -8.7791246549  W2        129             0.0000000000
       386       129  TIP3      H1            -11.1712683614       -9.3691256141       -8.5360846549  W2        129             0.0000000000
       387       129  TIP3      H2            -10.0938983614       -8.3697556141       -8.1722246549  W2        129             0.0000000000
       388       130  TIP3      OH2            -8.7008383614       -7.5674856141      -25.8992946549  W2        130             0.0000000000
       389       130  TIP3      H1             -8.4177983614       -8.3619656141      -25.4466046549  W2        130             0.0000000000
       390       130  TIP3      H2             -7.9610483614       -7.3343856141      -26.4601846549  W2        130             0.0000000000
       391       131  TIP3      OH2           -22.0874783614      -12.0015656141       -8.1742646549  W2        131             0.0000000000
       392       131  TIP3      H1            -21.9434283614      -12.9034956141       -8.4605946549  W2        131             0.0000000000
       393       131  TIP3      H2            -22.8597383614      -11.7153556141       -8.6620346549  W2        131             0.0000000000
       394       132  TIP3      OH2           -17.7461083614      -11.6579956141      -26.0418046549  W2        132             0.0000000000
       395       132  TIP3      H1            -17.6816983614      -12.4520356141      -25.5111646549  W2        132             0.0000000000
       396       132  TIP3      H2            -17.0931883614      -11.7767156141      -26.7316046549  W2        132             0.0000000000
       397       133  TIP3      OH2           -15.4318683614      -12.0317556141       -8.7416246549  W2        133             0.0000000000
       398       133  TIP3      H1            -15.7604883614      -11.7609456141       -9.5988846549  W2        133             0.0000000000
       399       133  TIP3      H2            -15.2800483614      -12.9727756141       -8.8291246549  W2        133             0.0000000000
       400       134  TIP3      OH2           -12.3937683614      -10.6108256141      -26.3060046549  W2        134             0.0000000000
       401       134  TIP3      H1            -12.6623583614      -10.4306156141      -25.4051146549  W2        134             0.0000000000
       402       134  TIP3      H2            -12.6002083614      -11.5362056141      -26.4374246549  W2        134             0.0000000000
       403       135  TIP3      OH2            -9.6973483614      -12.1160256141      -11.3583946549  W2        135             0.0000000000
       404       135  TIP3      H1             -8.9518683614      -11.5276556141      -11.4779946549  W2        135             0.0000000000
       405       135  TIP3      H2            -10.4546683614      -11.5340556141      -11.2950846549  W2        135             0.0000000000
       406       136  TIP3      OH2           -21.2548283614      -14.8012356141       -8.7543346549  W2        136             0.0000000000
       407       136  TIP3      H1            -20.8467083614      -15.6585756141       -8.8752746549  W2        136             0.0000000000
       408       136  TIP3      H2            -21.5150683614      -14.7871056141       -7.8333046549  W2        136             0.0000000000
       409       137  TIP3      OH2           -16.5967283614      -13.6853756141      -23.7360046549  W2        137             0.0000000000
       410       137  TIP3      H1            -17.0565283614      -14.1695456141      -23.0501546549  W2        137             0.0000000000
       411       137  TIP3      H2            -16.3418583614      -14.3538356141      -24.3719546549  W2        137             0.0000000000
       412       138  TIP3      OH2           -17.3077983614      -15.7926656141      -11.3800446549  W2        138             0.0000000000
       413       138  TIP3      H1            -17.9261883614      -15.1180056141      -11.0995746549  W2        138             0.0000000000
       414       138  TIP3      H2            -16.9636783614      -15.4712756141      -12.2134246549  W2        138             0.0000000000
       415       139  TIP3      OH2           -15.5256883614      -15.4421956141      -25.4736846549  W2        139             0.0000000000
       416       139  TIP3      H1            -15.7061883614      -15.5970756141      -26.4008546549  W2        139             0.0000000000
       417       139  TIP3      H2            -14.5756383614      -15.3343256141      -25.4288946549  W2        139             0.0000000000
       418       140  TIP3      OH2           -12.2879783614      -13.3211356141       -8.1025646549  W2        140             0.0000000000
       419       140  TIP3      H1            -11.3348583614      -13.2372256141       -8.1299646549  W2        140             0.0000000000
       420       140  TIP3      H2            -12.4485183614      -14.0329556141       -7.4830746549  W2        140             0.0000000000
       421       141  TIP3      OH2            -6.1358583614      -13.0877756141      -26.0278746549  W2        141             0.0000000000
       422       141  TIP3      H1             -6.4093783614      -13.5122256141      -26.8410446549  W2        141             0.0000000000
       423       141  TIP3      H2             -6.0964483614      -12.1563256141      -26.2448346549  W2        141             0.0000000000
       424       142  TIP3      OH2           -16.9684283614      -18.4375856141      -10.2977346549  W2        142             0.0000000000
       425       142  TIP3      H1            -16.8183383614      -19.1664556141      -10.8997646549  W2        142             0.0000000000
       426       142  TIP3      H2            -16.9661883614      -17.6604156141      -10.8565146549  W2        142             0.0000000000
       427       143  TIP3      OH2           -16.5558583614      -20.0680056141      -12.8049946549  W2        143             0.0000000000
       428       143  TIP3      H1            -16.0201083614      -19.6163356141      -13.4570646549  W2        143             0.0000000000
       429       143  TIP3      H2            -17.4078983614      -20.1760256141      -13.2275846549  W2        143             0.0000000000
       430       144  TIP3      OH2           -14.9740183614      -14.6283856141      -12.5654746549  W2        144             0.0000000000
       431       144  TIP3      H1            -14.2235383614      -14.7846356141      -13.1386946549  W2        144             0.0000000000
       432       144  TIP3      H2            -15.3131883614      -13.7767256141      -12.8409246549  W2        144             0.0000000000
       433       145  TIP3      OH2           -10.5583983614      -16.8132056141       -7.5369446549  W2        145             0.0000000000
       434       145  TIP3      H1            -10.3662683614      -17.7442656141       -7.6484946549  W2        145             0.0000000000
       435       145  TIP3      H2             -9.7007683614      -16.3882556141       -7.5474046549  W2        145             0.0000000000
       436       146  TIP3      OH2            -9.2416783614      -14.0246856141       -9.4596746549  W2        146             0.0000000000
       437       146  TIP3      H1             -9.5231783614      -13.3152256141      -10.0372946549  W2        146             0.0000000000
       438       146  TIP3      H2             -8.2992483614      -14.0973856141       -9.6105546549  W2        146             0.0000000000
       439       147  TIP3      OH2           -18.4897983614      -17.2392356141       -8.3861746549  W2        147             0.0000000000
       440       147  TIP3      H1            -19.2568983614      -17.7717556141       -8.5964146549  W2        147             0.0000000000
       441       147  TIP3      H2            -17.8108983614      -17.5491956141       -8.9855446549  W2        147             0.0000000000
       442       148  TIP3      OH2           -15.7503083614      -22.6114356141      -12.3736346549  W2        148             0.0000000000
       443       148  TIP3      H1            -15.8483483614      -21.6651156141      -12.4790146549  W2        148             0.0000000000
       444       148  TIP3      H2            -16.4926883614      -22.9840556141      -12.8492846549  W2        148             0.0000000000
       445       149  TIP3      OH2           -14.4862583614      -18.2898956141       -8.8097946549  W2        149             0.0000000000
       446       149  TIP3      H1            -14.7217183614      -18.5092256141       -7.9083046549  W2        149             0.0000000000
       447       149  TIP3      H2            -15.2695683614      -18.4967756141       -9.3195446549  W2        149             0.0000000000
       448       150  TIP3      OH2           -11.7705983614      -19.1625456141       -9.7344446549  W2        150             0.0000000000
       449       150  TIP3      H1            -12.7180583614      -19.1305756141       -9.6021146549  W2        150             0.0000000000
       450       150  TIP3      H2            -11.4579283614      -19.7878356141       -9.0806246549  W2        150             0.0000000000
       451       151  TIP3      OH2           -10.1364483614      -20.5284356141       -7.7292546549  W2        151             0.0000000000
       452       151  TIP3      H1            -10.2332683614      -21.4807056141       -7.7350646549  W2        151             0.0000000000
       453       151  TIP3      H2            -10.4581383614      -20.2597556141       -6.8687046549  W2        151             0.0000000000
       454       152  TIP3      OH2           -20.3095183614      -19.3188556141       -8.6817046549  W2        152             0.0000000000
       455       152  TIP3      H1            -20.0977783614      -20.0252456141       -9.2919546549  W2        152             0.0000000000
       456       152  TIP3      H2            -20.4207683614      -19.7562556141       -7.8375846549  W2        152             0.0000000000
       457       153  TIP3      OH2           -15.5284983614      -23.3176956141       -9.7023546549  W2        153             0.0000000000
       458       153  TIP3      H1            -14.8166583614      -23.9574756141       -9.7164446549  W2        153             0.0000000000
       459       153  TIP3      H2            -15.6294583614      -23.0508656141      -10.6160446549  W2        153             0.0000000000
       460       154  TIP3      OH2           -15.1747483614      -21.6348556141       -7.6487246549  W2        154             0.0000000000
       461       154  TIP3      H1            -15.3065283614      -22.1104756141       -8.4688746549  W2        154             0.0000000000
       462       154  TIP3      H2            -15.7740083614      -20.8904956141       -7.7040146549  W2        154             0.0000000000
       463       155  TIP3      OH2           -15.6285183614       -4.7518256141      -24.4723246549  W2        155             0.0000000000
       464       155  TIP3      H1            -14.6954483614       -4.5939556141      -24.3284846549  W2        155             0.0000000000
       465       155  TIP3      H2            -15.8926383614       -4.0765256141      -25.0971746549  W2        155             0.0000000000
       466       156  TIP3      OH2           -22.0600283614      -10.1154456141      -24.9895146549  W2        156             0.0000000000
       467       156  TIP3      H1            -21.1461083614      -10.0365556141      -24.7161246549  W2        156             0.0000000000
       468       156  TIP3      H2            -22.0527183614      -10.8024856141      -25.6559546549  W2        156             0.0000000000
       469       157  TIP3      OH2           -23.4109683614       -4.7225956141      -19.9121246549  W2        157             0.0000000000
       470       157  TIP3      H1            -24.0582583614       -5.1844256141      -20.4450046549  W2        157             0.0000000000
       471       157  TIP3      H2            -23.0565083614       -5.3942656141      -19.3295046549  W2        157             0.0000000000
       472       158  TIP3      OH2           -22.5410483614       -6.6418956141      -18.1075046549  W2        158             0.0000000000
       473       158  TIP3      H1            -22.8753683614       -7.5221656141      -17.9354846549  W2        158             0.0000000000
       474       158  TIP3      H2            -22.3188083614       -6.2963956141      -17.2429446549  W2        158             0.0000000000
       475       159  TIP3      OH2            -4.9925683614       -5.8322556141      -15.1270246549  W2        159             0.0000000000
       476       159  TIP3      H1             -5.0138983614       -5.6474156141      -14.1880846549  W2        159             0.0000000000
       477       159  TIP3      H2             -4.3019483614       -5.2638556141      -15.4678846549  W2        159             0.0000000000
       478       160  TIP3      OH2            -5.4292783614       -6.2651456141      -12.2051146549  W2        160             0.0000000000
       479       160  TIP3      H1             -5.9164083614       -7.0007356141      -12.5763746549  W2        160             0.0000000000
       480       160  TIP3      H2             -4.8800083614       -6.6587556141      -11.5271746549  W2        160             0.0000000000
       481       161  TIP3      OH2            -6.9785483614      -10.4753356141       -7.5670846549  W2        161             0.0000000000
       482       161  TIP3      H1             -7.8444383614      -10.5803656141       -7.1728546549  W2        161             0.0000000000
       483       161  TIP3      H2             -6.6019583614       -9.7170056141       -7.1206146549  W2        161             0.0000000000
       484       162  TIP3      OH2            -5.6775783614      -12.2189656141      -22.0528346549  W2        162             0.0000000000
       485       162  TIP3      H1             -4.8274383614      -11.7978756141      -21.9256746549  W2        162             0.0000000000
       486       162  TIP3      H2             -5.6720683614      -12.9589556141      -21.4456946549  W2        162             0.0000000000
       487       163  TIP3      OH2            -5.2830183614      -14.1652256141      -20.2292646549  W2        163             0.0000000000
       488       163  TIP3      H1             -6.0095583614      -14.6449656141      -19.8315046549  W2        163             0.0000000000
       489       163  TIP3      H2             -4.7016883614      -13.9597556141      -19.4971046549  W2        163             0.0000000000
       490       164  TIP3      OH2            -5.5238983614      -11.3804756141      -15.2815046549  W2        164             0.0000000000
       491       164  TIP3      H1             -4.6904783614      -11.7584756141      -15.5621446549  W2        164             0.0000000000
       492       164  TIP3      H2             -5.4118683614      -10.4373556141      -15.4005946549  W2        164             0.0000000000
       493       165  TIP3      OH2            -7.0376683614       -8.5027256141      -12.9746646549  W2        165             0.0000000000
       494       165  TIP3      H1             -7.6851383614       -8.1775756141      -12.3491446549  W2        165             0.0000000000
       495       165  TIP3      H2             -7.5552683614       -8.9429556141      -13.6488346549  W2        165             0.0000000000
       496       166  TIP3      OH2            -5.0147083614      -14.2643756141      -23.8381346549  W2        166             0.0000000000
       497       166  TIP3      H1             -5.5365983614      -13.9079656141      -24.5570446549  W2        166             0.0000000000
       498       166  TIP3      H2             -5.0477883614      -13.5895956141      -23.1600446549  W2        166             0.0000000000
       499       167  TIP3      OH2            -6.6658083614      -17.0248156141      -25.2874246549  W2        167             0.0000000000
       500       167  TIP3      H1             -6.5693683614      -16.3581156141      -25.9674546549  W2        167             0.0000000000
       501       167  TIP3      H2             -6.8058483614      -17.8401856141      -25.7688746549  W2        167             0.0000000000
       502       168  TIP3      OH2            -7.4963383614      -15.6445756141      -19.6663946549  W2        168             0.0000000000
       503       168  TIP3      H1             -7.6464583614      -16.5897156141      -19.6866146549  W2        168             0.0000000000
       504       168  TIP3      H2             -7.8498883614      -15.3634356141      -18.8224846549  W2        168             0.0000000000
       505       169  TIP3      OH2           -22.4610983614      -13.5663556141      -15.6560146549  W2        169             0.0000000000
       506       169  TIP3      H1            -22.2768083614      -13.6481856141      -16.5917246549  W2        169             0.0000000000
       507       169  TIP3      H2            -21.6118083614      -13.6906556141      -15.2323746549  W2        169             0.0000000000
       508       170  TIP3      OH2            -6.6400483614      -13.6742456141      -10.0275646549  W2        170             0.0000000000
       509       170  TIP3      H1             -6.0573183614      -14.4090156141       -9.8358446549  W2        170             0.0000000000
       510       170  TIP3      H2             -6.0761183614      -12.9022156141       -9.9809846549  W2        170             0.0000000000
       511       171  TIP3      OH2            -5.1433383614      -15.7716656141       -9.3430246549  W2        171             0.0000000000
       512       171  TIP3      H1             -6.0066683614      -16.1504556141       -9.5085546549  W2        171             0.0000000000
       513       171  TIP3      H2             -4.5389683614      -16.5101856141       -9.4174446549  W2        171             0.0000000000
       514       172  TIP3      OH2            -7.4184283614      -19.6168356141      -26.1698746549  W2        172             0.0000000000
       515       172  TIP3      H1             -6.8078483614      -19.9881556141      -25.5330546549  W2        172             0.0000000000
       516       172  TIP3      H2             -8.2552783614      -20.0381456141      -25.9738746549  W2        172             0.0000000000
       517       173  TIP3      OH2            -7.7858583614      -18.0619956141      -21.2038846549  W2        173             0.0000000000
       518       173  TIP3      H1             -7.5061483614      -18.9689556141      -21.0797146549  W2        173             0.0000000000
       519       173  TIP3      H2             -7.0266883614      -17.6278456141      -21.5929646549  W2        173             0.0000000000
       520       174  TIP3      OH2            -7.1740283614      -17.4802556141      -15.7679946549  W2        174             0.0000000000
       521       174  TIP3      H1             -6.2412283614      -17.2682656141      -15.8023946549  W2        174             0.0000000000
       522       174  TIP3      H2             -7.4092783614      -17.3790456141      -14.8456946549  W2        174             0.0000000000
       523       175  TIP3      OH2            -7.1448383614      -16.7437256141      -12.9920546549  W2        175             0.0000000000
       524       175  TIP3      H1             -7.9877083614      -16.4756856141      -12.6260746549  W2        175             0.0000000000
       525       175  TIP3      H2             -6.7024083614      -15.9215356141      -13.2029446549  W2        175             0.0000000000
       526       176  TIP3      OH2           -22.8636183614      -18.2958556141       -9.5151346549  W2        176             0.0000000000
       527       176  TIP3      H1            -21.9441283614      -18.4180256141       -9.2788246549  W2        176             0.0000000000
       528       176  TIP3      H2            -23.3131683614      -19.0458856141       -9.1257846549  W2        176             0.0000000000
       529       177  TIP3      OH2            -4.8616783614      -22.7637056141       -7.6385546549  W2        177             0.0000000000
       530       177  TIP3      H1             -4.5119783614      -23.4173556141       -8.2440846549  W2        177             0.0000000000
       531       177  TIP3      H2             -4.7147283614      -21.9262956141       -8.0782946549  W2        177             0.0000000000
       532       178  TIP3      OH2            -7.1723783614      -20.7990656141      -21.1556846549  W2        178             0.0000000000
       533       178  TIP3      H1             -6.9898783614      -21.2479156141      -20.3301846549  W2        178             0.0000000000
       534       178  TIP3      H2             -7.7720883614      -21.3836256141      -21.6192246549  W2        178             0.0000000000
       535       179  TIP3      OH2           -21.6423683614      -19.9836956141      -16.6238446549  W2        179             0.0000000000
       536       179  TIP3      H1            -21.1972083614      -20.7754456141      -16.3218746549  W2        179             0.0000000000
       537       179  TIP3      H2            -21.1760683614      -19.2671756141      -16.1932846549  W2        179             0.0000000000
       538       180  TIP3      OH2           -23.3383383614      -16.9843956141      -15.5548246549  W2        180             0.0000000000
       539       180  TIP3      H1            -22.8463583614      -17.2053456141      -16.3456246549  W2        180             0.0000000000
       540       180  TIP3      H2            -22.9762483614      -16.1440556141      -15.2738746549  W2        180             0.0000000000
       541       181  TIP3      OH2            -5.3419583614      -20.6542456141       -9.2894246549  W2        181             0.0000000000
       542       181  TIP3      H1             -6.2593883614      -20.3835356141       -9.3250746549  W2        181             0.0000000000
       543       181  TIP3      H2             -5.2190183614      -21.1894056141      -10.0734546549  W2        181             0.0000000000
       544       182  TIP3      OH2            -5.3057583614      -20.7312556141      -24.6276546549  W2        182             0.0000000000
       545       182  TIP3      H1             -4.8934983614      -21.4526856141      -25.1028546549  W2        182             0.0000000000
       546       182  TIP3      H2             -4.6241083614      -20.0617956141      -24.5692246549  W2        182             0.0000000000
       547       183  TIP3      OH2           -23.0246883614      -20.7264856141      -21.5005846549  W2        183             0.0000000000
       548       183  TIP3      H1            -23.9498483614      -20.5178256141      -21.6300346549  W2        183             0.0000000000
       549       183  TIP3      H2            -22.5706983614      -20.2424056141      -22.1903546549  W2        183             0.0000000000
       550       184  TIP3      OH2            -8.2539683614       -5.7423156141      -19.5548446549  W2        184             0.0000000000
       551       184  TIP3      H1             -7.6016783614       -6.0901056141      -20.1629346549  W2        184             0.0000000000
       552       184  TIP3      H2             -7.7435883614       -5.2539956141      -18.9088746549  W2        184             0.0000000000
       553       185  TIP3      OH2           -23.0611483614      -21.9885856141      -13.1563346549  W2        185             0.0000000000
       554       185  TIP3      H1            -23.7260983614      -22.2345556141      -12.5132446549  W2        185             0.0000000000
       555       185  TIP3      H2            -23.5040183614      -21.3665456141      -13.7335346549  W2        185             0.0000000000
       556       186  TIP3      OH2           -20.8692183614       -8.8131756141       -9.0117546549  W2        186             0.0000000000
       557       186  TIP3      H1            -21.6899683614       -8.6385256141       -9.4722846549  W2        186             0.0000000000
       558       186  TIP3      H2            -21.1214383614       -8.8867056141       -8.0913146549  W2        186             0.0000000000
       559       187  TIP3      OH2           -17.9149283614       -7.8390556141      -12.7533546549  W2        187             0.0000000000
       560       187  TIP3      H1            -18.3398183614       -7.0292056141      -13.0358946549  W2        187             0.0000000000
       561       187  TIP3      H2            -17.0106483614       -7.7536456141      -13.0553746549  W2        187             0.0000000000
       562       188  TIP3      OH2           -13.6037883614       -6.4400556141       -9.7939846549  W2        188             0.0000000000
       563       188  TIP3      H1            -13.4190383614       -6.7734456141       -8.9159546549  W2        188             0.0000000000
       564       188  TIP3      H2            -12.7573383614       -6.1301956141      -10.1160646549  W2        188             0.0000000000
       565       189  TIP3      OH2           -11.2587483614       -5.1541656141      -10.5498446549  W2        189             0.0000000000
       566       189  TIP3      H1            -10.5818583614       -5.7869356141      -10.7899246549  W2        189             0.0000000000
       567       189  TIP3      H2            -10.9368683614       -4.7531156141       -9.7425146549  W2        189             0.0000000000
       568       190  TIP3      OH2            -6.3413683614      -22.5646156141      -11.4703446549  W2        190             0.0000000000
       569       190  TIP3      H1             -7.1540183614      -22.2395856141      -11.8578746549  W2        190             0.0000000000
       570       190  TIP3      H2             -6.1085183614      -23.3247656141      -12.0034346549  W2        190             0.0000000000
       571       191  TIP3      OH2           -20.5132583614       -4.5826656141      -12.7058246549  W2        191             0.0000000000
       572       191  TIP3      H1            -21.2336183614       -4.1425656141      -13.1570546549  W2        191             0.0000000000
       573       191  TIP3      H2            -20.8788583614       -4.8331956141      -11.8574246549  W2        191             0.0000000000
       574       192  TIP3      OH2           -18.0459983614       -4.9822756141      -13.6761046549  W2        192             0.0000000000
       575       192  TIP3      H1            -18.9107783614       -4.9104256141      -13.2720946549  W2        192             0.0000000000
       576       192  TIP3      H2            -18.1010983614       -4.4355456141      -14.4598546549  W2        192             0.0000000000
       577       193  TIP3      OH2           -13.3354383614       -5.0943856141      -14.5005046549  W2        193             0.0000000000
       578       193  TIP3      H1            -13.7920383614       -4.5654156141      -15.1546646549  W2        193             0.0000000000
       579       193  TIP3      H2            -13.1726383614       -4.4912456141      -13.7752746549  W2        193             0.0000000000
       580       194  TIP3      OH2           -11.0078083614       -6.2164256141      -13.5554746549  W2        194             0.0000000000
       581       194  TIP3      H1            -11.9124383614       -6.0514056141      -13.8212646549  W2        194             0.0000000000
       582       194  TIP3      H2            -10.5789483614       -5.3632056141      -13.6211346549  W2        194             0.0000000000
       583       195  TIP3      OH2            -8.4036183614       -4.6465156141      -13.2606946549  W2        195             0.0000000000
       584       195  TIP3      H1             -8.5854183614       -3.7306256141      -13.4712046549  W2        195             0.0000000000
       585       195  TIP3      H2             -8.2268383614       -5.0568056141      -14.1072346549  W2        195             0.0000000000
       586       196  TIP3      OH2           -21.0984483614       -5.9594156141      -15.7956446549  W2        196             0.0000000000
       587       196  TIP3      H1            -21.1168483614       -6.3849056141      -14.9384146549  W2        196             0.0000000000
       588       196  TIP3      H2            -20.2936583614       -6.2779156141      -16.2044246549  W2        196             0.0000000000
       589       197  TIP3      OH2           -18.9571383614       -7.2495456141      -17.1406546549  W2        197             0.0000000000
       590       197  TIP3      H1            -19.1760683614       -8.1658056141      -16.9710546549  W2        197             0.0000000000
       591       197  TIP3      H2            -18.1329183614       -7.1095056141      -16.6745146549  W2        197             0.0000000000
       592       198  TIP3      OH2           -16.4198883614       -6.7796156141      -16.2918546549  W2        198             0.0000000000
       593       198  TIP3      H1            -16.2073183614       -7.6677156141      -16.5787646549  W2        198             0.0000000000
       594       198  TIP3      H2            -16.3553783614       -6.8138456141      -15.3374546549  W2        198             0.0000000000
       595       199  TIP3      OH2           -12.9115183614      -21.1155556141      -17.1475246549  W2        199             0.0000000000
       596       199  TIP3      H1            -13.5858383614      -21.7449956141      -16.8919446549  W2        199             0.0000000000
       597       199  TIP3      H2            -12.3475983614      -21.5996656141      -17.7507346549  W2        199             0.0000000000
       598       200  TIP3      OH2            -7.7687983614      -23.0081556141      -17.0348146549  W2        200             0.0000000000
       599       200  TIP3      H1             -7.1650383614      -22.4606156141      -17.5367146549  W2        200             0.0000000000
       600       200  TIP3      H2             -8.6385983614      -22.6891156141      -17.2754046549  W2        200             0.0000000000
       601       201  TIP3      OH2            -6.0417583614      -21.8692856141      -18.7017246549  W2        201             0.0000000000
       602       201  TIP3      H1             -5.4300083614      -22.3837156141      -19.2283646549  W2        201             0.0000000000
       603       201  TIP3      H2             -5.6594183614      -20.9920756141      -18.6782846549  W2        201             0.0000000000
       604       202  TIP3      OH2           -20.5847683614      -22.4815256141      -19.3255346549  W2        202             0.0000000000
       605       202  TIP3      H1            -21.3617883614      -22.7160356141      -19.8329446549  W2        202             0.0000000000
       606       202  TIP3      H2            -20.0544083614      -23.2783156141      -19.3167346549  W2        202             0.0000000000
       607       203  TIP3      OH2           -21.7484283614      -22.6837156141      -23.5219246549  W2        203             0.0000000000
       608       203  TIP3      H1            -21.3093583614      -22.0726656141      -24.1135746549  W2        203             0.0000000000
       609       203  TIP3      H2            -22.3821883614      -22.1453056141      -23.0479246549  W2        203             0.0000000000
       610       204  TIP3      OH2           -16.0055083614      -22.5548156141      -19.5122246549  W2        204             0.0000000000
       611       204  TIP3      H1            -15.1311683614      -22.1663856141      -19.5417946549  W2        204             0.0000000000
       612       204  TIP3      H2            -16.1414283614      -22.7700356141      -18.5895046549  W2        204             0.0000000000
       613       205  TIP3      OH2           -10.4486683614      -22.5248356141      -17.8630546549  W2        205             0.0000000000
       614       205  TIP3      H1            -10.3725083614      -22.4296756141      -18.8124546549  W2        205             0.0000000000
       615       205  TIP3      H2            -10.7237483614      -23.4325456141      -17.7341446549  W2        205             0.0000000000
       616       206  TIP3      OH2            -9.0954083614      -22.4990556141      -22.1705546549  W2        206             0.0000000000
       617       206  TIP3      H1             -9.7982983614      -21.8841356141      -22.3804146549  W2        206             0.0000000000
       618       206  TIP3      H2             -9.5402683614      -23.3363856141      -22.0394646549  W2        206             0.0000000000
       619       207  TIP3      OH2           -21.8474783614       -6.7354956141      -22.6244146549  W2        207             0.0000000000
       620       207  TIP3      H1            -22.5324883614       -6.7736056141      -23.2919046549  W2        207             0.0000000000
       621       207  TIP3      H2            -21.8437583614       -5.8227356141      -22.3362046549  W2        207             0.0000000000
       622       208  TIP3      OH2           -19.8875183614      -20.7675656141      -25.0795146549  W2        208             0.0000000000
       623       208  TIP3      H1            -19.3961783614      -21.3973256141      -25.6069646549  W2        208             0.0000000000
       624       208  TIP3      H2            -19.2638883614      -20.4716256141      -24.4163946549  W2        208             0.0000000000
       625       209  TIP3      OH2           -14.8615083614      -20.4744156141      -22.6224646549  W2        209             0.0000000000
       626       209  TIP3      H1            -14.6833783614      -21.1210956141      -21.9396046549  W2        209             0.0000000000
       627       209  TIP3      H2            -14.9148883614      -19.6406456141      -22.1553546549  W2        209             0.0000000000
       628       210  TIP3      OH2           -12.9831283614       -5.5260056141      -24.2267946549  W2        210             0.0000000000
       629       210  TIP3      H1            -12.1171083614       -5.1592656141      -24.4049746549  W2        210             0.0000000000
       630       210  TIP3      H2            -13.2298483614       -5.9652056141      -25.0407146549  W2        210             0.0000000000
       631       211  TIP3      OH2            -6.2741683614       -5.9629756141      -21.5476846549  W2        211             0.0000000000
       632       211  TIP3      H1             -6.4684583614       -6.7107656141      -22.1127246549  W2        211             0.0000000000
       633       211  TIP3      H2             -6.3131583614       -5.2049656141      -22.1308946549  W2        211             0.0000000000
       634       212  TIP3      OH2           -20.6269683614      -21.9673356141       -9.8079146549  W2        212             0.0000000000
       635       212  TIP3      H1            -20.9931483614      -22.7330756141       -9.3654446549  W2        212             0.0000000000
       636       212  TIP3      H2            -19.7141183614      -21.9383156141       -9.5214046549  W2        212             0.0000000000
       637       213  TIP3      OH2           -18.6538883614      -22.6168956141       -8.2722046549  W2        213             0.0000000000
       638       213  TIP3      H1            -17.7555283614      -22.8908756141       -8.4568646549  W2        213             0.0000000000
       639       213  TIP3      H2            -19.0405783614      -23.3592956141       -7.8079446549  W2        213             0.0000000000
       640       214  TIP3      OH2           -20.0293583614       -5.8154156141      -25.5992046549  W2        214             0.0000000000
       641       214  TIP3      H1            -20.2968983614       -5.5291256141      -24.7258946549  W2        214             0.0000000000
       642       214  TIP3      H2            -19.2580983614       -6.3614956141      -25.4469546549  W2        214             0.0000000000
       643       215  TIP3      OH2           -10.2326583614      -23.2843656141       -8.0899246549  W2        215             0.0000000000
       644       215  TIP3      H1            -10.1559383614      -23.7102956141       -7.2361546549  W2        215             0.0000000000
       645       215  TIP3      H2             -9.3389983614      -23.2708956141       -8.4325746549  W2        215             0.0000000000
       646       216  TIP3      OH2            -7.0565483614       -7.2117356141       -9.3975046549  W2        216             0.0000000000
       647       216  TIP3      H1             -7.8383583614       -7.3979356141       -9.9174446549  W2        216             0.0000000000
       648       216  TIP3      H2             -7.1285583614       -6.2823056141       -9.1802546549  W2        216             0.0000000000
       649       217  TIP3      OH2             7.3494916386      -13.3252956141      -19.3667846549  W2        217             0.0000000000
       650       217  TIP3      H1              7.4386016386      -12.3814756141      -19.4990746549  W2        217             0.0000000000
       651       217  TIP3      H2              6.7112516386      -13.6006556141      -20.0248446549  W2        217             0.0000000000
       652       218  TIP3      OH2             6.2826216386      -14.0702256141      -15.9479646549  W2        218             0.0000000000
       653       218  TIP3      H1              6.2443716386      -14.7165956141      -15.2430046549  W2        218             0.0000000000
       654       218  TIP3      H2              5.9602716386      -14.5367856141      -16.7190946549  W2        218             0.0000000000
       655       219  TIP3      OH2            -1.3488783614      -14.4560156141      -14.3549746549  W2        219             0.0000000000
       656       219  TIP3      H1             -1.3076683614      -15.0816856141      -13.6317346549  W2        219             0.0000000000
       657       219  TIP3      H2             -0.6461083614      -13.8321556141      -14.1729346549  W2        219             0.0000000000
       658       220  TIP3      OH2             9.9886416386      -11.1311856141      -17.6464546549  W2        220             0.0000000000
       659       220  TIP3      H1              9.5479116386      -11.8515856141      -17.1958946549  W2        220             0.0000000000
       660       220  TIP3      H2              9.9756116386      -10.4104656141      -17.0166846549  W2        220             0.0000000000
       661       221  TIP3      OH2            -0.4255683614      -10.0061256141      -15.8200646549  W2        221             0.0000000000
       662       221  TIP3      H1             -0.7950483614      -10.8080756141      -16.1896346549  W2        221             0.0000000000
       663       221  TIP3      H2              0.5155416386      -10.1746356141      -15.7737246549  W2        221             0.0000000000
       664       222  TIP3      OH2            -3.8155183614      -16.3458656141      -20.4271846549  W2        222             0.0000000000
       665       222  TIP3      H1             -4.2631783614      -15.4999956141      -20.4455346549  W2        222             0.0000000000
       666       222  TIP3      H2             -4.3763983614      -16.9254456141      -20.9426746549  W2        222             0.0000000000
       667       223  TIP3      OH2            -3.1049083614      -14.1839056141      -18.3013846549  W2        223             0.0000000000
       668       223  TIP3      H1             -2.8915583614      -14.9537456141      -17.7740846549  W2        223             0.0000000000
       669       223  TIP3      H2             -2.3671483614      -14.0942356141      -18.9046246549  W2        223             0.0000000000
       670       224  TIP3      OH2             7.1001916386       -6.0270156141      -17.4344146549  W2        224             0.0000000000
       671       224  TIP3      H1              7.7198316386       -6.7035456141      -17.7074946549  W2        224             0.0000000000
       672       224  TIP3      H2              6.8919316386       -6.2449356141      -16.5259246549  W2        224             0.0000000000
       673       225  TIP3      OH2             4.6720616386      -11.6380856141      -15.5418646549  W2        225             0.0000000000
       674       225  TIP3      H1              4.9758516386      -12.3239456141      -16.1364546549  W2        225             0.0000000000
       675       225  TIP3      H2              5.3934616386      -11.5192156141      -14.9240646549  W2        225             0.0000000000
       676       226  TIP3      OH2            13.3350416386      -20.0365556141      -14.6812446549  W2        226             0.0000000000
       677       226  TIP3      H1             13.3842616386      -19.4264356141      -13.9453346549  W2        226             0.0000000000
       678       226  TIP3      H2             13.7605516386      -19.5754656141      -15.4041346549  W2        226             0.0000000000
       679       227  TIP3      OH2             7.8127616386      -17.2438456141      -15.2143846549  W2        227             0.0000000000
       680       227  TIP3      H1              7.9553516386      -18.1901456141      -15.1942246549  W2        227             0.0000000000
       681       227  TIP3      H2              7.7066616386      -17.0368656141      -16.1428946549  W2        227             0.0000000000
       682       228  TIP3      OH2             0.9675916386      -19.1422056141      -17.9419046549  W2        228             0.0000000000
       683       228  TIP3      H1              1.0107016386      -18.2823556141      -18.3602746549  W2        228             0.0000000000
       684       228  TIP3      H2              0.5100016386      -19.6947356141      -18.5755846549  W2        228             0.0000000000
       685       229  TIP3      OH2             8.6898616386      -19.0116456141      -19.5410746549  W2        229             0.0000000000
       686       229  TIP3      H1              9.3362916386      -19.3403256141      -18.9163146549  W2        229             0.0000000000
       687       229  TIP3      H2              9.1998016386      -18.4937456141      -20.1639346549  W2        229             0.0000000000
       688       230  TIP3      OH2            -2.4122583614      -16.7456256141      -17.1797646549  W2        230             0.0000000000
       689       230  TIP3      H1             -1.7585983614      -17.2954556141      -16.7477546549  W2        230             0.0000000000
       690       230  TIP3      H2             -2.3883283614      -17.0197256141      -18.0965646549  W2        230             0.0000000000
       691       231  TIP3      OH2             2.7441916386      -15.1954956141      -17.9646146549  W2        231             0.0000000000
       692       231  TIP3      H1              3.3602916386      -15.7219556141      -17.4552146549  W2        231             0.0000000000
       693       231  TIP3      H2              2.1580716386      -15.8356256141      -18.3682546549  W2        231             0.0000000000
       694       232  TIP3      OH2            13.7265016386      -18.5586356141      -12.4452646549  W2        232             0.0000000000
       695       232  TIP3      H1             13.0379616386      -17.9005656141      -12.5406046549  W2        232             0.0000000000
       696       232  TIP3      H2             13.7419616386      -18.7558456141      -11.5087246549  W2        232             0.0000000000
       697       233  TIP3      OH2            -0.2222183614      -20.2243656141      -13.8678246549  W2        233             0.0000000000
       698       233  TIP3      H1             -0.4410483614      -19.6943056141      -14.6342246549  W2        233             0.0000000000
       699       233  TIP3      H2             -0.8901283614      -19.9978156141      -13.2206846549  W2        233             0.0000000000
       700       234  TIP3      OH2             7.1467616386      -10.7242556141      -20.3239146549  W2        234             0.0000000000
       701       234  TIP3      H1              6.8512716386      -11.0470256141      -21.1752246549  W2        234             0.0000000000
       702       234  TIP3      H2              6.8225416386       -9.8245856141      -20.2826546549  W2        234             0.0000000000
       703       235  TIP3      OH2             2.3469216386      -12.5487956141      -13.5804546549  W2        235             0.0000000000
       704       235  TIP3      H1              1.6068316386      -11.9506456141      -13.4769346549  W2        235             0.0000000000
       705       235  TIP3      H2              3.0608716386      -11.9948356141      -13.8960946549  W2        235             0.0000000000
       706       236  TIP3      OH2            10.4537016386      -19.7207156141      -17.5604846549  W2        236             0.0000000000
       707       236  TIP3      H1             10.2385016386      -20.4863756141      -17.0278846549  W2        236             0.0000000000
       708       236  TIP3      H2             11.1094416386      -19.2482556141      -17.0476346549  W2        236             0.0000000000
       709       237  TIP3      OH2            -0.6284883614      -18.3321856141      -15.9156046549  W2        237             0.0000000000
       710       237  TIP3      H1             -0.0148583614      -17.6994256141      -15.5423646549  W2        237             0.0000000000
       711       237  TIP3      H2             -0.1164183614      -18.8046856141      -16.5719146549  W2        237             0.0000000000
       712       238  TIP3      OH2             0.7543516386      -10.5844956141      -12.7933046549  W2        238             0.0000000000
       713       238  TIP3      H1              0.7491116386       -9.7051456141      -13.1713746549  W2        238             0.0000000000
       714       238  TIP3      H2             -0.0992383614      -10.6680856141      -12.3683146549  W2        238             0.0000000000
       715       239  TIP3      OH2            -3.1245583614      -10.9137056141      -22.0113746549  W2        239             0.0000000000
       716       239  TIP3      H1             -3.3964683614      -10.6846056141      -22.9000846549  W2        239             0.0000000000
       717       239  TIP3      H2             -3.0789883614      -10.0758256141      -21.5508446549  W2        239             0.0000000000
       718       240  TIP3      OH2            10.5004116386       -9.2921156141      -15.2985246549  W2        240             0.0000000000
       719       240  TIP3      H1              9.5587816386       -9.2337256141      -15.1368346549  W2        240             0.0000000000
       720       240  TIP3      H2             10.7770216386       -8.3860656141      -15.4355546549  W2        240             0.0000000000
       721       241  TIP3      OH2            10.8011116386      -21.0055856141      -13.8811346549  W2        241             0.0000000000
       722       241  TIP3      H1             10.0650316386      -20.3948756141      -13.9190046549  W2        241             0.0000000000
       723       241  TIP3      H2             11.4845116386      -20.5906856141      -14.4074946549  W2        241             0.0000000000
       724       242  TIP3      OH2             3.8042516386      -22.9188556141      -16.4153346549  W2        242             0.0000000000
       725       242  TIP3      H1              3.6866716386      -23.8672556141      -16.4695046549  W2        242             0.0000000000
       726       242  TIP3      H2              2.9492616386      -22.5862456141      -16.1422246549  W2        242             0.0000000000
       727       243  TIP3      OH2             8.7525316386       -7.5107656141      -18.6733646549  W2        243             0.0000000000
       728       243  TIP3      H1              9.1777616386       -8.2179756141      -19.1584046549  W2        243             0.0000000000
       729       243  TIP3      H2              9.0695316386       -6.7094956141      -19.0901446549  W2        243             0.0000000000
       730       244  TIP3      OH2             9.9121816386       -9.6099156141      -20.1647046549  W2        244             0.0000000000
       731       244  TIP3      H1              9.6546616386      -10.2999056141      -20.7761146549  W2        244             0.0000000000
       732       244  TIP3      H2              9.9832616386      -10.0527956141      -19.3191146549  W2        244             0.0000000000
       733       245  TIP3      OH2            11.5982016386      -11.0432456141      -11.6873546549  W2        245             0.0000000000
       734       245  TIP3      H1             11.7378316386      -11.6349956141      -12.4266546549  W2        245             0.0000000000
       735       245  TIP3      H2             11.7654816386      -10.1706556141      -12.0434746549  W2        245             0.0000000000
       736       246  TIP3      OH2             6.0707416386      -14.0812956141      -21.9147546549  W2        246             0.0000000000
       737       246  TIP3      H1              5.3592916386      -13.5463256141      -22.2667046549  W2        246             0.0000000000
       738       246  TIP3      H2              6.7617016386      -14.0260856141      -22.5748646549  W2        246             0.0000000000
       739       247  TIP3      OH2             6.1246616386      -15.6238656141      -24.8762546549  W2        247             0.0000000000
       740       247  TIP3      H1              6.8256516386      -15.6011756141      -24.2248546549  W2        247             0.0000000000
       741       247  TIP3      H2              6.4269516386      -16.2518956141      -25.5323246549  W2        247             0.0000000000
       742       248  TIP3      OH2            13.4401316386      -14.7034456141      -13.6213146549  W2        248             0.0000000000
       743       248  TIP3      H1             12.7875416386      -14.0088856141      -13.5322246549  W2        248             0.0000000000
       744       248  TIP3      H2             13.9051616386      -14.4933556141      -14.4311546549  W2        248             0.0000000000
       745       249  TIP3      OH2             9.4765116386      -13.8719656141      -20.9631646549  W2        249             0.0000000000
       746       249  TIP3      H1              8.7446116386      -13.6435956141      -20.3901046549  W2        249             0.0000000000
       747       249  TIP3      H2              9.9237316386      -14.5856956141      -20.5084146549  W2        249             0.0000000000
       748       250  TIP3      OH2             9.3738616386      -15.6977056141      -11.8954646549  W2        250             0.0000000000
       749       250  TIP3      H1              9.4537716386      -14.9342656141      -11.3236146549  W2        250             0.0000000000
       750       250  TIP3      H2              8.7726316386      -15.4184656141      -12.5859546549  W2        250             0.0000000000
       751       251  TIP3      OH2             1.1218816386      -13.2413456141      -19.0806646549  W2        251             0.0000000000
       752       251  TIP3      H1              0.7914016386      -13.6120056141      -19.8989646549  W2        251             0.0000000000
       753       251  TIP3      H2              1.7102916386      -13.9119456141      -18.7338346549  W2        251             0.0000000000
       754       252  TIP3      OH2             2.4886316386       -9.8132856141      -16.3994446549  W2        252             0.0000000000
       755       252  TIP3      H1              2.3937616386      -10.3919756141      -17.1559846549  W2        252             0.0000000000
       756       252  TIP3      H2              3.2179916386      -10.1847156141      -15.9031646549  W2        252             0.0000000000
       757       253  TIP3      OH2             1.4884316386      -14.4727856141      -15.4471646549  W2        253             0.0000000000
       758       253  TIP3      H1              2.0536816386      -14.3513656141      -16.2100446549  W2        253             0.0000000000
       759       253  TIP3      H2              1.8073216386      -13.8352856141      -14.8083146549  W2        253             0.0000000000
       760       254  TIP3      OH2             7.7976516386       -8.9695956141      -14.7131146549  W2        254             0.0000000000
       761       254  TIP3      H1              7.5573116386       -8.3072856141      -14.0651946549  W2        254             0.0000000000
       762       254  TIP3      H2              7.5994716386       -9.8040756141      -14.2881546549  W2        254             0.0000000000
       763       255  TIP3      OH2             2.3685016386      -10.0735156141      -10.7299746549  W2        255             0.0000000000
       764       255  TIP3      H1              2.0572516386       -9.2911956141      -10.2746546549  W2        255             0.0000000000
       765       255  TIP3      H2              1.7185216386      -10.2266056141      -11.4157746549  W2        255             0.0000000000
       766       256  TIP3      OH2             8.3474616386      -14.7096756141      -23.2780446549  W2        256             0.0000000000
       767       256  TIP3      H1              8.9270116386      -14.5596456141      -22.5311546549  W2        256             0.0000000000
       768       256  TIP3      H2              8.7614616386      -14.2389356141      -24.0014046549  W2        256             0.0000000000
       769       257  TIP3      OH2            -0.7115083614      -13.8754056141      -11.5014046549  W2        257             0.0000000000
       770       257  TIP3      H1             -0.6411883614      -13.2247256141      -10.8029046549  W2        257             0.0000000000
       771       257  TIP3      H2             -1.6022883614      -13.7726556141      -11.8363146549  W2        257             0.0000000000
       772       258  TIP3      OH2             6.0739516386       -7.9728256141      -19.8427346549  W2        258             0.0000000000
       773       258  TIP3      H1              6.5477116386       -7.6771956141      -19.0653146549  W2        258             0.0000000000
       774       258  TIP3      H2              5.5108816386       -7.2346656141      -20.0757746549  W2        258             0.0000000000
       775       259  TIP3      OH2             0.6080916386       -8.0020156141       -9.9665946549  W2        259             0.0000000000
       776       259  TIP3      H1              0.6156216386       -8.1380456141      -10.9140446549  W2        259             0.0000000000
       777       259  TIP3      H2             -0.3078683614       -8.1192056141       -9.7145946549  W2        259             0.0000000000
       778       260  TIP3      OH2            12.0463016386      -22.9596356141      -23.4650746549  W2        260             0.0000000000
       779       260  TIP3      H1             11.1463716386      -22.8207356141      -23.1700146549  W2        260             0.0000000000
       780       260  TIP3      H2             12.2981416386      -22.1281756141      -23.8669046549  W2        260             0.0000000000
       781       261  TIP3      OH2             0.1121516386      -14.1719156141      -21.4913846549  W2        261             0.0000000000
       782       261  TIP3      H1             -0.1797183614      -13.4037456141      -21.9822546549  W2        261             0.0000000000
       783       261  TIP3      H2             -0.5623283614      -14.8312956141      -21.6542446549  W2        261             0.0000000000
       784       262  TIP3      OH2            13.2354416386       -8.5933956141      -25.0886846549  W2        262             0.0000000000
       785       262  TIP3      H1             13.3087916386       -7.6543756141      -24.9181546549  W2        262             0.0000000000
       786       262  TIP3      H2             14.1409516386       -8.8985356141      -25.1449546549  W2        262             0.0000000000
       787       263  TIP3      OH2            -3.7948383614      -11.8089956141      -12.6764046549  W2        263             0.0000000000
       788       263  TIP3      H1             -4.2959983614      -11.8370556141      -13.4914346549  W2        263             0.0000000000
       789       263  TIP3      H2             -3.7894683614      -12.7146756141      -12.3666746549  W2        263             0.0000000000
       790       264  TIP3      OH2            -4.0445683614       -9.0286156141      -15.7923846549  W2        264             0.0000000000
       791       264  TIP3      H1             -3.0985083614       -9.1729156141      -15.8114346549  W2        264             0.0000000000
       792       264  TIP3      H2             -4.1569383614       -8.2443356141      -15.2552646549  W2        264             0.0000000000
       793       265  TIP3      OH2            14.1532816386       -8.3626456141      -10.1100146549  W2        265             0.0000000000
       794       265  TIP3      H1             14.1039616386       -9.3178356141      -10.1472546549  W2        265             0.0000000000
       795       265  TIP3      H2             13.3265116386       -8.0951156141       -9.7086346549  W2        265             0.0000000000
       796       266  TIP3      OH2             5.1316816386       -8.7887256141      -11.2338746549  W2        266             0.0000000000
       797       266  TIP3      H1              5.2191416386       -7.9622656141      -10.7589646549  W2        266             0.0000000000
       798       266  TIP3      H2              4.2681916386       -9.1183456141      -10.9849446549  W2        266             0.0000000000
       799       267  TIP3      OH2             5.5462616386       -5.0163556141      -21.4278146549  W2        267             0.0000000000
       800       267  TIP3      H1              5.4708616386       -5.1376356141      -22.3742946549  W2        267             0.0000000000
       801       267  TIP3      H2              5.5791316386       -4.0670856141      -21.3093546549  W2        267             0.0000000000
       802       268  TIP3      OH2            -0.8003583614       -6.2276556141      -19.6469146549  W2        268             0.0000000000
       803       268  TIP3      H1             -0.6483183614       -6.5756156141      -18.7682646549  W2        268             0.0000000000
       804       268  TIP3      H2             -1.6513183614       -6.5839256141      -19.9021946549  W2        268             0.0000000000
       805       269  TIP3      OH2             8.6478616386       -5.8623356141      -24.4255746549  W2        269             0.0000000000
       806       269  TIP3      H1              9.0227016386       -6.6067256141      -24.8963146549  W2        269             0.0000000000
       807       269  TIP3      H2              8.6522316386       -6.1322756141      -23.5072446549  W2        269             0.0000000000
       808       270  TIP3      OH2             8.3166716386       -5.9366256141      -21.6763546549  W2        270             0.0000000000
       809       270  TIP3      H1              7.3816516386       -5.8364356141      -21.4976546549  W2        270             0.0000000000
       810       270  TIP3      H2              8.5968616386       -6.6460256141      -21.0980346549  W2        270             0.0000000000
       811       271  TIP3      OH2            11.3052616386      -16.8693956141       -9.6297946549  W2        271             0.0000000000
       812       271  TIP3      H1             10.8979416386      -16.3888356141      -10.3504646549  W2        271             0.0000000000
       813       271  TIP3      H2             11.3458316386      -17.7747956141       -9.9377146549  W2        271             0.0000000000
       814       272  TIP3      OH2            -1.5457883614      -10.4854556141      -11.6331246549  W2        272             0.0000000000
       815       272  TIP3      H1             -1.3296583614      -10.8468956141      -10.7735446549  W2        272             0.0000000000
       816       272  TIP3      H2             -2.4013183614      -10.8600756141      -11.8427746549  W2        272             0.0000000000
       817       273  TIP3      OH2             1.0730116386      -22.0154056141      -15.6377046549  W2        273             0.0000000000
       818       273  TIP3      H1              0.2113816386      -22.1025856141      -16.0454146549  W2        273             0.0000000000
       819       273  TIP3      H2              1.0505816386      -21.1593956141      -15.2099446549  W2        273             0.0000000000
       820       274  TIP3      OH2             5.7357916386      -22.2933656141      -12.2630046549  W2        274             0.0000000000
       821       274  TIP3      H1              6.1561016386      -22.7086556141      -11.5099446549  W2        274             0.0000000000
       822       274  TIP3      H2              4.8027516386      -22.4720356141      -12.1458046549  W2        274             0.0000000000
       823       275  TIP3      OH2             9.0622816386      -18.5378456141      -11.4095546549  W2        275             0.0000000000
       824       275  TIP3      H1              8.5482316386      -18.6636256141      -10.6119546549  W2        275             0.0000000000
       825       275  TIP3      H2              8.9067516386      -17.6255356141      -11.6539346549  W2        275             0.0000000000
       826       276  TIP3      OH2             9.8247716386      -13.6768456141      -25.6482546549  W2        276             0.0000000000
       827       276  TIP3      H1              9.8668516386      -13.8994556141      -26.5782546549  W2        276             0.0000000000
       828       276  TIP3      H2             10.6739816386      -13.2781356141      -25.4582646549  W2        276             0.0000000000
       829       277  TIP3      OH2             5.3975216386      -19.8010256141      -24.9779246549  W2        277             0.0000000000
       830       277  TIP3      H1              5.1440016386      -19.7818656141      -24.0551146549  W2        277             0.0000000000
       831       277  TIP3      H2              5.1407316386      -20.6724856141      -25.2793046549  W2        277             0.0000000000
       832       278  TIP3      OH2             1.1640216386      -17.0499556141      -14.5426846549  W2        278             0.0000000000
       833       278  TIP3      H1              0.5222316386      -17.0902256141      -13.8336746549  W2        278             0.0000000000
       834       278  TIP3      H2              1.2012216386      -16.1234856141      -14.7803846549  W2        278             0.0000000000
       835       279  TIP3      OH2             1.1609316386      -16.8289456141      -19.6306846549  W2        279             0.0000000000
       836       279  TIP3      H1              0.2682216386      -17.1693356141      -19.6893046549  W2        279             0.0000000000
       837       279  TIP3      H2              1.6115916386      -17.2058556141      -20.3863646549  W2        279             0.0000000000
       838       280  TIP3      OH2             6.6964816386      -16.4129156141      -20.8136046549  W2        280             0.0000000000
       839       280  TIP3      H1              6.2875116386      -15.5980556141      -21.1051246549  W2        280             0.0000000000
       840       280  TIP3      H2              7.4171016386      -16.5529056141      -21.4278946549  W2        280             0.0000000000
       841       281  TIP3      OH2             5.7986416386      -16.2372756141       -9.3255346549  W2        281             0.0000000000
       842       281  TIP3      H1              5.2360216386      -16.9421156141       -9.0047546549  W2        281             0.0000000000
       843       281  TIP3      H2              6.6249816386      -16.3580856141       -8.8577746549  W2        281             0.0000000000
       844       282  TIP3      OH2             7.7012516386      -16.9668756141      -17.9996346549  W2        282             0.0000000000
       845       282  TIP3      H1              7.5057016386      -16.3611956141      -18.7145746549  W2        282             0.0000000000
       846       282  TIP3      H2              7.8825116386      -17.8003556141      -18.4340046549  W2        282             0.0000000000
       847       283  TIP3      OH2            -1.0859283614      -16.7296056141      -12.6754846549  W2        283             0.0000000000
       848       283  TIP3      H1             -1.1239883614      -16.3294456141      -11.8067746549  W2        283             0.0000000000
       849       283  TIP3      H2             -1.5768183614      -17.5463656141      -12.5851946549  W2        283             0.0000000000
       850       284  TIP3      OH2             2.2798116386      -19.3553756141      -25.8768846549  W2        284             0.0000000000
       851       284  TIP3      H1              1.8488816386      -19.8003656141      -25.1471446549  W2        284             0.0000000000
       852       284  TIP3      H2              1.5616816386      -18.9837456141      -26.3891346549  W2        284             0.0000000000
       853       285  TIP3      OH2            -4.4778483614      -19.6134256141      -18.8250146549  W2        285             0.0000000000
       854       285  TIP3      H1             -3.8470783614      -19.6422156141      -18.1056246549  W2        285             0.0000000000
       855       285  TIP3      H2             -4.0284183614      -20.0385556141      -19.5554246549  W2        285             0.0000000000
       856       286  TIP3      OH2            -3.2036383614      -18.8672256141      -23.4009746549  W2        286             0.0000000000
       857       286  TIP3      H1             -2.7294683614      -18.2762356141      -23.9858846549  W2        286             0.0000000000
       858       286  TIP3      H2             -3.9209983614      -18.3369356141      -23.0539646549  W2        286             0.0000000000
       859       287  TIP3      OH2             6.9651716386      -15.3287456141      -13.3283946549  W2        287             0.0000000000
       860       287  TIP3      H1              7.2886516386      -15.9597756141      -13.9713446549  W2        287             0.0000000000
       861       287  TIP3      H2              6.5251016386      -15.8635256141      -12.6676546549  W2        287             0.0000000000
       862       288  TIP3      OH2             3.7424616386      -19.4011956141      -18.5442746549  W2        288             0.0000000000
       863       288  TIP3      H1              2.8315716386      -19.3445156141      -18.2556746549  W2        288             0.0000000000
       864       288  TIP3      H2              4.2477516386      -19.4616456141      -17.7335546549  W2        288             0.0000000000
       865       289  TIP3      OH2            -1.4291983614      -17.7725656141      -19.7175146549  W2        289             0.0000000000
       866       289  TIP3      H1             -2.3183983614      -17.6730156141      -20.0575546549  W2        289             0.0000000000
       867       289  TIP3      H2             -1.1327083614      -18.6142656141      -20.0637246549  W2        289             0.0000000000
       868       290  TIP3      OH2             2.2239816386      -17.7723056141      -22.0610546549  W2        290             0.0000000000
       869       290  TIP3      H1              3.1555316386      -17.6433056141      -21.8827446549  W2        290             0.0000000000
       870       290  TIP3      H2              2.0090116386      -17.1028756141      -22.7105846549  W2        290             0.0000000000
       871       291  TIP3      OH2             8.1476516386      -20.1665656141      -15.2800946549  W2        291             0.0000000000
       872       291  TIP3      H1              7.4708116386      -20.0352556141      -14.6161246549  W2        291             0.0000000000
       873       291  TIP3      H2              7.6621416386      -20.3216156141      -16.0903246549  W2        291             0.0000000000
       874       292  TIP3      OH2             0.8980016386      -16.5780856141      -24.4944446549  W2        292             0.0000000000
       875       292  TIP3      H1              0.3555116386      -16.9577056141      -25.1856846549  W2        292             0.0000000000
       876       292  TIP3      H2              1.7314916386      -16.3836156141      -24.9230346549  W2        292             0.0000000000
       877       293  TIP3      OH2            11.4351616386       -4.4950256141       -9.0033346549  W2        293             0.0000000000
       878       293  TIP3      H1             11.6350316386       -4.0708356141       -9.8378046549  W2        293             0.0000000000
       879       293  TIP3      H2             12.0905316386       -4.1512056141       -8.3962946549  W2        293             0.0000000000
       880       294  TIP3      OH2            -0.9668583614      -12.0208956141       -9.3952846549  W2        294             0.0000000000
       881       294  TIP3      H1             -0.2346183614      -11.7663056141       -8.8338346549  W2        294             0.0000000000
       882       294  TIP3      H2             -1.7469883614      -11.8163556141       -8.8797446549  W2        294             0.0000000000
       883       295  TIP3      OH2             5.0624316386      -16.6138956141      -16.6573146549  W2        295             0.0000000000
       884       295  TIP3      H1              5.6267716386      -17.1602356141      -17.2043546549  W2        295             0.0000000000
       885       295  TIP3      H2              4.9147716386      -17.1357056141      -15.8685546549  W2        295             0.0000000000
       886       296  TIP3      OH2             0.0644016386      -20.4772856141      -20.2388346549  W2        296             0.0000000000
       887       296  TIP3      H1             -0.2526483614      -21.3797556141      -20.2742946549  W2        296             0.0000000000
       888       296  TIP3      H2              0.8458116386      -20.4755456141      -20.7916746549  W2        296             0.0000000000
       889       297  TIP3      OH2             3.6890216386      -18.2252856141      -14.2432746549  W2        297             0.0000000000
       890       297  TIP3      H1              2.8535516386      -17.7713356141      -14.1330346549  W2        297             0.0000000000
       891       297  TIP3      H2              4.2130816386      -17.9494356141      -13.4912846549  W2        297             0.0000000000
       892       298  TIP3      OH2             4.2332816386      -12.0125156141      -22.5586346549  W2        298             0.0000000000
       893       298  TIP3      H1              3.4883816386      -12.5199856141      -22.8808446549  W2        298             0.0000000000
       894       298  TIP3      H2              4.0990016386      -11.9637156141      -21.6121546549  W2        298             0.0000000000
       895       299  TIP3      OH2            11.3831716386      -12.8796956141      -13.7718746549  W2        299             0.0000000000
       896       299  TIP3      H1             12.0250516386      -12.4230656141      -14.3156546549  W2        299             0.0000000000
       897       299  TIP3      H2             10.5528616386      -12.7664556141      -14.2344646549  W2        299             0.0000000000
       898       300  TIP3      OH2             8.1309616386      -19.1985256141      -24.3593746549  W2        300             0.0000000000
       899       300  TIP3      H1              7.1923816386      -19.0869656141      -24.5104946549  W2        300             0.0000000000
       900       300  TIP3      H2              8.4281716386      -18.3418356141      -24.0528046549  W2        300             0.0000000000
       901       301  TIP3      OH2             5.7524916386      -11.8281856141      -11.3217246549  W2        301             0.0000000000
       902       301  TIP3      H1              5.4071016386      -12.2099456141      -10.5147646549  W2        301             0.0000000000
       903       301  TIP3      H2              5.5525016386      -10.8948256141      -11.2504346549  W2        301             0.0000000000
       904       302  TIP3      OH2             8.8493116386      -17.3312556141      -22.6986346549  W2        302             0.0000000000
       905       302  TIP3      H1              9.7412116386      -17.4687556141      -22.3795146549  W2        302             0.0000000000
       906       302  TIP3      H2              8.9056716386      -16.5406456141      -23.2352846549  W2        302             0.0000000000
       907       303  TIP3      OH2            -0.6418883614      -12.7175156141      -16.7888446549  W2        303             0.0000000000
       908       303  TIP3      H1              0.1028316386      -12.7199456141      -17.3901946549  W2        303             0.0000000000
       909       303  TIP3      H2             -0.5642283614      -13.5411356141      -16.3073346549  W2        303             0.0000000000
       910       304  TIP3      OH2             6.3586916386      -10.5540856141      -23.5331746549  W2        304             0.0000000000
       911       304  TIP3      H1              6.0635316386       -9.7272956141      -23.1516946549  W2        304             0.0000000000
       912       304  TIP3      H2              5.6556916386      -11.1733956141      -23.3370346549  W2        304             0.0000000000
       913       305  TIP3      OH2            -3.6339183614      -14.2568256141      -11.4739946549  W2        305             0.0000000000
       914       305  TIP3      H1             -3.4110583614      -14.6748656141      -10.6422446549  W2        305             0.0000000000
       915       305  TIP3      H2             -4.2359083614      -14.8693256141      -11.8967146549  W2        305             0.0000000000
       916       306  TIP3      OH2             3.3825716386      -14.7398356141       -9.2610246549  W2        306             0.0000000000
       917       306  TIP3      H1              3.0866516386      -14.9055356141      -10.1561146549  W2        306             0.0000000000
       918       306  TIP3      H2              4.3140916386      -14.9598056141       -9.2716346549  W2        306             0.0000000000
       919       307  TIP3      OH2             8.0028516386       -9.3666356141      -11.3712246549  W2        307             0.0000000000
       920       307  TIP3      H1              7.1022816386       -9.1833756141      -11.6388346549  W2        307             0.0000000000
       921       307  TIP3      H2              8.0369616386       -9.1077056141      -10.4503446549  W2        307             0.0000000000
       922       308  TIP3      OH2            13.7341816386      -17.1218456141      -23.0039646549  W2        308             0.0000000000
       923       308  TIP3      H1             13.1798116386      -17.5180456141      -23.6762146549  W2        308             0.0000000000
       924       308  TIP3      H2             13.8345416386      -16.2113256141      -23.2816346549  W2        308             0.0000000000
       925       309  TIP3      OH2            13.6973816386      -11.3216756141      -10.1668146549  W2        309             0.0000000000
       926       309  TIP3      H1             12.8462316386      -11.0832956141      -10.5341746549  W2        309             0.0000000000
       927       309  TIP3      H2             14.2877216386      -11.3383556141      -10.9201046549  W2        309             0.0000000000
       928       310  TIP3      OH2            12.0293516386       -8.3358056141      -22.5387546549  W2        310             0.0000000000
       929       310  TIP3      H1             11.6564616386       -9.1614256141      -22.2296946549  W2        310             0.0000000000
       930       310  TIP3      H2             12.3067016386       -8.5188656141      -23.4364146549  W2        310             0.0000000000
       931       311  TIP3      OH2             9.1897416386      -13.5278556141      -15.5175646549  W2        311             0.0000000000
       932       311  TIP3      H1              8.2614316386      -13.7596656141      -15.5446346549  W2        311             0.0000000000
       933       311  TIP3      H2              9.6408516386      -14.3048756141      -15.8476846549  W2        311             0.0000000000
       934       312  TIP3      OH2             1.7330516386       -9.1996956141      -19.3846946549  W2        312             0.0000000000
       935       312  TIP3      H1              2.2602716386       -8.4262556141      -19.5848146549  W2        312             0.0000000000
       936       312  TIP3      H2              0.8529016386       -8.9747756141      -19.6862946549  W2        312             0.0000000000
       937       313  TIP3      OH2            -2.5121783614      -14.3372856141      -24.7974546549  W2        313             0.0000000000
       938       313  TIP3      H1             -1.8961883614      -13.7105656141      -24.4179746549  W2        313             0.0000000000
       939       313  TIP3      H2             -3.3739183614      -14.0213056141      -24.5258046549  W2        313             0.0000000000
       940       314  TIP3      OH2             3.1602816386      -11.5367056141      -19.8082646549  W2        314             0.0000000000
       941       314  TIP3      H1              2.9192816386      -10.6112656141      -19.7667346549  W2        314             0.0000000000
       942       314  TIP3      H2              2.4196416386      -11.9955756141      -19.4118746549  W2        314             0.0000000000
       943       315  TIP3      OH2             3.6749416386       -7.3873456141      -13.4931546549  W2        315             0.0000000000
       944       315  TIP3      H1              4.0374116386       -6.5327856141      -13.7267146549  W2        315             0.0000000000
       945       315  TIP3      H2              4.2064616386       -7.6791856141      -12.7525246549  W2        315             0.0000000000
       946       316  TIP3      OH2             1.8433616386       -6.5149456141      -20.2630446549  W2        316             0.0000000000
       947       316  TIP3      H1              0.8934116386       -6.4092056141      -20.2117146549  W2        316             0.0000000000
       948       316  TIP3      H2              2.1951716386       -5.6942056141      -19.9182946549  W2        316             0.0000000000
       949       317  TIP3      OH2             7.2190216386      -11.2882756141      -13.7925946549  W2        317             0.0000000000
       950       317  TIP3      H1              6.7931516386      -11.5161056141      -12.9661946549  W2        317             0.0000000000
       951       317  TIP3      H2              7.7996016386      -12.0270956141      -13.9750646549  W2        317             0.0000000000
       952       318  TIP3      OH2             9.4219116386      -10.3592256141      -24.7186946549  W2        318             0.0000000000
       953       318  TIP3      H1              9.7752216386      -10.7392456141      -23.9143446549  W2        318             0.0000000000
       954       318  TIP3      H2              8.4732616386      -10.4527456141      -24.6317646549  W2        318             0.0000000000
       955       319  TIP3      OH2             9.8774416386       -6.7363256141      -11.3231146549  W2        319             0.0000000000
       956       319  TIP3      H1              9.2757616386       -7.2920356141      -11.8184846549  W2        319             0.0000000000
       957       319  TIP3      H2             10.1588116386       -6.0693456141      -11.9493746549  W2        319             0.0000000000
       958       320  TIP3      OH2            13.9253516386       -5.8799756141      -24.5176746549  W2        320             0.0000000000
       959       320  TIP3      H1             14.6691416386       -5.2939256141      -24.6575146549  W2        320             0.0000000000
       960       320  TIP3      H2             13.2311616386       -5.3113956141      -24.1844346549  W2        320             0.0000000000
       961       321  TIP3      OH2            -1.9999683614      -19.5035556141      -11.9158546549  W2        321             0.0000000000
       962       321  TIP3      H1             -2.8927383614      -19.1650156141      -11.9834546549  W2        321             0.0000000000
       963       321  TIP3      H2             -2.0986883614      -20.3589456141      -11.4977746549  W2        321             0.0000000000
       964       322  TIP3      OH2            10.2878416386      -11.6870256141      -22.4919046549  W2        322             0.0000000000
       965       322  TIP3      H1             10.0106016386      -12.4150956141      -21.9357946549  W2        322             0.0000000000
       966       322  TIP3      H2             11.2151416386      -11.5678256141      -22.2866446549  W2        322             0.0000000000
       967       323  TIP3      OH2            -2.3487683614       -7.6991156141      -13.4809146549  W2        323             0.0000000000
       968       323  TIP3      H1             -2.1317383614       -8.6308756141      -13.5119446549  W2        323             0.0000000000
       969       323  TIP3      H2             -2.1024183614       -7.4246156141      -12.5976346549  W2        323             0.0000000000
       970       324  TIP3      OH2             3.5126916386       -9.2476156141      -26.2716946549  W2        324             0.0000000000
       971       324  TIP3      H1              3.7516716386       -9.9958056141      -26.8188046549  W2        324             0.0000000000
       972       324  TIP3      H2              3.2438216386       -9.6354456141      -25.4389146549  W2        324             0.0000000000
       973       325  TIP3      OH2             2.4497516386       -9.6772356141      -23.8154346549  W2        325             0.0000000000
       974       325  TIP3      H1              2.5965516386      -10.1972556141      -23.0253446549  W2        325             0.0000000000
       975       325  TIP3      H2              2.4469216386       -8.7704756141      -23.5088446549  W2        325             0.0000000000
       976       326  TIP3      OH2            -1.0971383614      -12.4249056141      -23.3048946549  W2        326             0.0000000000
       977       326  TIP3      H1             -1.7832083614      -12.0726556141      -22.7379246549  W2        326             0.0000000000
       978       326  TIP3      H2             -0.5743483614      -11.6619456141      -23.5514646549  W2        326             0.0000000000
       979       327  TIP3      OH2             6.7343716386      -19.7625256141      -13.0259946549  W2        327             0.0000000000
       980       327  TIP3      H1              7.4331616386      -19.6886556141      -12.3760246549  W2        327             0.0000000000
       981       327  TIP3      H2              6.3535116386      -20.6270256141      -12.8717046549  W2        327             0.0000000000
       982       328  TIP3      OH2             7.5188616386      -20.1103556141      -21.9287646549  W2        328             0.0000000000
       983       328  TIP3      H1              7.7386916386      -19.6388156141      -22.7322246549  W2        328             0.0000000000
       984       328  TIP3      H2              8.0772616386      -19.7160956141      -21.2587046549  W2        328             0.0000000000
       985       329  TIP3      OH2             5.1874716386       -7.9798756141      -23.0660146549  W2        329             0.0000000000
       986       329  TIP3      H1              4.3710816386       -7.4829056141      -23.0135846549  W2        329             0.0000000000
       987       329  TIP3      H2              5.7171016386       -7.5045256141      -23.7061346549  W2        329             0.0000000000
       988       330  TIP3      OH2             4.7188516386      -18.3824756141      -21.0939246549  W2        330             0.0000000000
       989       330  TIP3      H1              5.5311116386      -17.8781556141      -21.0477546549  W2        330             0.0000000000
       990       330  TIP3      H2              4.4741516386      -18.5275056141      -20.1799646549  W2        330             0.0000000000
       991       331  TIP3      OH2             5.2544916386      -17.3962056141      -11.9092646549  W2        331             0.0000000000
       992       331  TIP3      H1              5.3735216386      -16.8226656141      -11.1522246549  W2        331             0.0000000000
       993       331  TIP3      H2              5.9099516386      -18.0842656141      -11.7944846549  W2        331             0.0000000000
       994       332  TIP3      OH2             5.6025216386      -21.3011756141      -20.1558146549  W2        332             0.0000000000
       995       332  TIP3      H1              5.2558716386      -20.6841156141      -19.5113846549  W2        332             0.0000000000
       996       332  TIP3      H2              6.2612116386      -20.8006056141      -20.6372646549  W2        332             0.0000000000
       997       333  TIP3      OH2             2.5257816386       -6.9361556141      -23.0843246549  W2        333             0.0000000000
       998       333  TIP3      H1              2.6866516386       -6.1364056141      -23.5850646549  W2        333             0.0000000000
       999       333  TIP3      H2              2.3285616386       -6.6295556141      -22.1992646549  W2        333             0.0000000000
      1000       334  TIP3      OH2             1.2602216386      -20.2382356141      -23.4685646549  W2        334             0.0000000000
      1001       334  TIP3      H1              1.1767016386      -19.3499256141      -23.1219246549  W2        334             0.0000000000
      1002       334  TIP3      H2              2.1502516386      -20.5035656141      -23.2368846549  W2        334             0.0000000000
      1003       335  TIP3      OH2            11.4590716386      -19.4891756141      -11.0742946549  W2        335             0.0000000000
      1004       335  TIP3      H1             10.5426516386      -19.2270056141      -11.1619246549  W2        335             0.0000000000
      1005       335  TIP3      H2             11.7945716386      -19.4922756141      -11.9707646549  W2        335             0.0000000000
      1006       336  TIP3      OH2            10.0611716386      -15.7390756141      -16.9785646549  W2        336             0.0000000000
      1007       336  TIP3      H1              9.2636116386      -16.1540556141      -17.3070646549  W2        336             0.0000000000
      1008       336  TIP3      H2             10.5062816386      -16.4297056141      -16.4875146549  W2        336             0.0000000000
      1009       337  TIP3      OH2            -0.4812483614       -9.8110156141      -24.4081146549  W2        337             0.0000000000
      1010       337  TIP3      H1              0.1109016386       -9.1115356141      -24.1318746549  W2        337             0.0000000000
      1011       337  TIP3      H2             -0.0219483614      -10.2440656141      -25.1276546549  W2        337             0.0000000000
      1012       338  TIP3      OH2            -2.1653283614      -17.1467156141      -25.2921746549  W2        338             0.0000000000
      1013       338  TIP3      H1             -2.2100683614      -16.2074056141      -25.1134746549  W2        338             0.0000000000
      1014       338  TIP3      H2             -3.0530083614      -17.3822256141      -25.5619646549  W2        338             0.0000000000
      1015       339  TIP3      OH2            11.1476316386       -6.4828256141      -15.3562146549  W2        339             0.0000000000
      1016       339  TIP3      H1             10.9920616386       -5.8043856141      -16.0132846549  W2        339             0.0000000000
      1017       339  TIP3      H2             12.0802716386       -6.4108956141      -15.1531546549  W2        339             0.0000000000
      1018       340  TIP3      OH2            -1.3571283614      -22.3650556141      -16.6190746549  W2        340             0.0000000000
      1019       340  TIP3      H1             -1.5861483614      -22.3058056141      -17.5465746549  W2        340             0.0000000000
      1020       340  TIP3      H2             -1.7997883614      -23.1565056141      -16.3126646549  W2        340             0.0000000000
      1021       341  TIP3      OH2            -2.4267983614       -8.4243456141      -20.4584946549  W2        341             0.0000000000
      1022       341  TIP3      H1             -3.2589383614       -7.9520756141      -20.4313546549  W2        341             0.0000000000
      1023       341  TIP3      H2             -1.8809683614       -7.9145856141      -21.0571846549  W2        341             0.0000000000
      1024       342  TIP3      OH2            -3.1384283614       -5.8119756141       -9.1286946549  W2        342             0.0000000000
      1025       342  TIP3      H1             -2.5982083614       -6.0285756141       -8.3687746549  W2        342             0.0000000000
      1026       342  TIP3      H2             -3.6196283614       -6.6173756141       -9.3184446549  W2        342             0.0000000000
      1027       343  TIP3      OH2             1.4589116386       -6.8925356141       -7.5082746549  W2        343             0.0000000000
      1028       343  TIP3      H1              2.2266316386       -7.3514556141       -7.1673546549  W2        343             0.0000000000
      1029       343  TIP3      H2              1.4375316386       -7.1185556141       -8.4381546549  W2        343             0.0000000000
      1030       344  TIP3      OH2             5.5508716386       -7.3844756141      -26.1330946549  W2        344             0.0000000000
      1031       344  TIP3      H1              4.9069716386       -8.0156156141      -25.8117246549  W2        344             0.0000000000
      1032       344  TIP3      H2              6.3127016386       -7.9156756141      -26.3647446549  W2        344             0.0000000000
      1033       345  TIP3      OH2             8.0357816386       -8.5124256141       -8.7791246549  W2        345             0.0000000000
      1034       345  TIP3      H1              7.6847316386       -9.3691256141       -8.5360846549  W2        345             0.0000000000
      1035       345  TIP3      H2              8.7621016386       -8.3697556141       -8.1722246549  W2        345             0.0000000000
      1036       346  TIP3      OH2            10.1551616386       -7.5674856141      -25.8992946549  W2        346             0.0000000000
      1037       346  TIP3      H1             10.4382016386       -8.3619656141      -25.4466046549  W2        346             0.0000000000
      1038       346  TIP3      H2             10.8949516386       -7.3343856141      -26.4601846549  W2        346             0.0000000000
      1039       347  TIP3      OH2            -3.2314783614      -12.0015656141       -8.1742646549  W2        347             0.0000000000
      1040       347  TIP3      H1             -3.0874283614      -12.9034956141       -8.4605946549  W2        347             0.0000000000
      1041       347  TIP3      H2             -4.0037383614      -11.7153556141       -8.6620346549  W2        347             0.0000000000
      1042       348  TIP3      OH2             1.1098916386      -11.6579956141      -26.0418046549  W2        348             0.0000000000
      1043       348  TIP3      H1              1.1743016386      -12.4520356141      -25.5111646549  W2        348             0.0000000000
      1044       348  TIP3      H2              1.7628116386      -11.7767156141      -26.7316046549  W2        348             0.0000000000
      1045       349  TIP3      OH2             3.4241316386      -12.0317556141       -8.7416246549  W2        349             0.0000000000
      1046       349  TIP3      H1              3.0955116386      -11.7609456141       -9.5988846549  W2        349             0.0000000000
      1047       349  TIP3      H2              3.5759516386      -12.9727756141       -8.8291246549  W2        349             0.0000000000
      1048       350  TIP3      OH2             6.4622316386      -10.6108256141      -26.3060046549  W2        350             0.0000000000
      1049       350  TIP3      H1              6.1936416386      -10.4306156141      -25.4051146549  W2        350             0.0000000000
      1050       350  TIP3      H2              6.2557916386      -11.5362056141      -26.4374246549  W2        350             0.0000000000
      1051       351  TIP3      OH2             9.1586516386      -12.1160256141      -11.3583946549  W2        351             0.0000000000
      1052       351  TIP3      H1              9.9041316386      -11.5276556141      -11.4779946549  W2        351             0.0000000000
      1053       351  TIP3      H2              8.4013316386      -11.5340556141      -11.2950846549  W2        351             0.0000000000
      1054       352  TIP3      OH2            -2.3988283614      -14.8012356141       -8.7543346549  W2        352             0.0000000000
      1055       352  TIP3      H1             -1.9907083614      -15.6585756141       -8.8752746549  W2        352             0.0000000000
      1056       352  TIP3      H2             -2.6590683614      -14.7871056141       -7.8333046549  W2        352             0.0000000000
      1057       353  TIP3      OH2             2.2592716386      -13.6853756141      -23.7360046549  W2        353             0.0000000000
      1058       353  TIP3      H1              1.7994716386      -14.1695456141      -23.0501546549  W2        353             0.0000000000
      1059       353  TIP3      H2              2.5141416386      -14.3538356141      -24.3719546549  W2        353             0.0000000000
      1060       354  TIP3      OH2             1.5482016386      -15.7926656141      -11.3800446549  W2        354             0.0000000000
      1061       354  TIP3      H1              0.9298116386      -15.1180056141      -11.0995746549  W2        354             0.0000000000
      1062       354  TIP3      H2              1.8923216386      -15.4712756141      -12.2134246549  W2        354             0.0000000000
      1063       355  TIP3      OH2             3.3303116386      -15.4421956141      -25.4736846549  W2        355             0.0000000000
      1064       355  TIP3      H1              3.1498116386      -15.5970756141      -26.4008546549  W2        355             0.0000000000
      1065       355  TIP3      H2              4.2803616386      -15.3343256141      -25.4288946549  W2        355             0.0000000000
      1066       356  TIP3      OH2             6.5680216386      -13.3211356141       -8.1025646549  W2        356             0.0000000000
      1067       356  TIP3      H1              7.5211416386      -13.2372256141       -8.1299646549  W2        356             0.0000000000
      1068       356  TIP3      H2              6.4074816386      -14.0329556141       -7.4830746549  W2        356             0.0000000000
      1069       357  TIP3      OH2            12.7201416386      -13.0877756141      -26.0278746549  W2        357             0.0000000000
      1070       357  TIP3      H1             12.4466216386      -13.5122256141      -26.8410446549  W2        357             0.0000000000
      1071       357  TIP3      H2             12.7595516386      -12.1563256141      -26.2448346549  W2        357             0.0000000000
      1072       358  TIP3      OH2             1.8875716386      -18.4375856141      -10.2977346549  W2        358             0.0000000000
      1073       358  TIP3      H1              2.0376616386      -19.1664556141      -10.8997646549  W2        358             0.0000000000
      1074       358  TIP3      H2              1.8898116386      -17.6604156141      -10.8565146549  W2        358             0.0000000000
      1075       359  TIP3      OH2             2.3001416386      -20.0680056141      -12.8049946549  W2        359             0.0000000000
      1076       359  TIP3      H1              2.8358916386      -19.6163356141      -13.4570646549  W2        359             0.0000000000
      1077       359  TIP3      H2              1.4481016386      -20.1760256141      -13.2275846549  W2        359             0.0000000000
      1078       360  TIP3      OH2             3.8819816386      -14.6283856141      -12.5654746549  W2        360             0.0000000000
      1079       360  TIP3      H1              4.6324616386      -14.7846356141      -13.1386946549  W2        360             0.0000000000
      1080       360  TIP3      H2              3.5428116386      -13.7767256141      -12.8409246549  W2        360             0.0000000000
      1081       361  TIP3      OH2             8.2976016386      -16.8132056141       -7.5369446549  W2        361             0.0000000000
      1082       361  TIP3      H1              8.4897316386      -17.7442656141       -7.6484946549  W2        361             0.0000000000
      1083       361  TIP3      H2              9.1552316386      -16.3882556141       -7.5474046549  W2        361             0.0000000000
      1084       362  TIP3      OH2             9.6143216386      -14.0246856141       -9.4596746549  W2        362             0.0000000000
      1085       362  TIP3      H1              9.3328216386      -13.3152256141      -10.0372946549  W2        362             0.0000000000
      1086       362  TIP3      H2             10.5567516386      -14.0973856141       -9.6105546549  W2        362             0.0000000000
      1087       363  TIP3      OH2             0.3662016386      -17.2392356141       -8.3861746549  W2        363             0.0000000000
      1088       363  TIP3      H1             -0.4008983614      -17.7717556141       -8.5964146549  W2        363             0.0000000000
      1089       363  TIP3      H2              1.0451016386      -17.5491956141       -8.9855446549  W2        363             0.0000000000
      1090       364  TIP3      OH2             3.1056916386      -22.6114356141      -12.3736346549  W2        364             0.0000000000
      1091       364  TIP3      H1              3.0076516386      -21.6651156141      -12.4790146549  W2        364             0.0000000000
      1092       364  TIP3      H2              2.3633116386      -22.9840556141      -12.8492846549  W2        364             0.0000000000
      1093       365  TIP3      OH2             4.3697416386      -18.2898956141       -8.8097946549  W2        365             0.0000000000
      1094       365  TIP3      H1              4.1342816386      -18.5092256141       -7.9083046549  W2        365             0.0000000000
      1095       365  TIP3      H2              3.5864316386      -18.4967756141       -9.3195446549  W2        365             0.0000000000
      1096       366  TIP3      OH2             7.0854016386      -19.1625456141       -9.7344446549  W2        366             0.0000000000
      1097       366  TIP3      H1              6.1379416386      -19.1305756141       -9.6021146549  W2        366             0.0000000000
      1098       366  TIP3      H2              7.3980716386      -19.7878356141       -9.0806246549  W2        366             0.0000000000
      1099       367  TIP3      OH2             8.7195516386      -20.5284356141       -7.7292546549  W2        367             0.0000000000
      1100       367  TIP3      H1              8.6227316386      -21.4807056141       -7.7350646549  W2        367             0.0000000000
      1101       367  TIP3      H2              8.3978616386      -20.2597556141       -6.8687046549  W2        367             0.0000000000
      1102       368  TIP3      OH2            -1.4535183614      -19.3188556141       -8.6817046549  W2        368             0.0000000000
      1103       368  TIP3      H1             -1.2417783614      -20.0252456141       -9.2919546549  W2        368             0.0000000000
      1104       368  TIP3      H2             -1.5647683614      -19.7562556141       -7.8375846549  W2        368             0.0000000000
      1105       369  TIP3      OH2             3.3275016386      -23.3176956141       -9.7023546549  W2        369             0.0000000000
      1106       369  TIP3      H1              4.0393416386      -23.9574756141       -9.7164446549  W2        369             0.0000000000
      1107       369  TIP3      H2              3.2265416386      -23.0508656141      -10.6160446549  W2        369             0.0000000000
      1108       370  TIP3      OH2             3.6812516386      -21.6348556141       -7.6487246549  W2        370             0.0000000000
      1109       370  TIP3      H1              3.5494716386      -22.1104756141       -8.4688746549  W2        370             0.0000000000
      1110       370  TIP3      H2              3.0819916386      -20.8904956141       -7.7040146549  W2        370             0.0000000000
      1111       371  TIP3      OH2             3.2274816386       -4.7518256141      -24.4723246549  W2        371             0.0000000000
      1112       371  TIP3      H1              4.1605516386       -4.5939556141      -24.3284846549  W2        371             0.0000000000
      1113       371  TIP3      H2              2.9633616386       -4.0765256141      -25.0971746549  W2        371             0.0000000000
      1114       372  TIP3      OH2            -3.2040283614      -10.1154456141      -24.9895146549  W2        372             0.0000000000
      1115       372  TIP3      H1             -2.2901083614      -10.0365556141      -24.7161246549  W2        372             0.0000000000
      1116       372  TIP3      H2             -3.1967183614      -10.8024856141      -25.6559546549  W2        372             0.0000000000
      1117       373  TIP3      OH2            -4.5549683614       -4.7225956141      -19.9121246549  W2        373             0.0000000000
      1118       373  TIP3      H1             -5.2022583614       -5.1844256141      -20.4450046549  W2        373             0.0000000000
      1119       373  TIP3      H2             -4.2005083614       -5.3942656141      -19.3295046549  W2        373             0.0000000000
      1120       374  TIP3      OH2            -3.6850483614       -6.6418956141      -18.1075046549  W2        374             0.0000000000
      1121       374  TIP3      H1             -4.0193683614       -7.5221656141      -17.9354846549  W2        374             0.0000000000
      1122       374  TIP3      H2             -3.4628083614       -6.2963956141      -17.2429446549  W2        374             0.0000000000
      1123       375  TIP3      OH2            13.8634316386       -5.8322556141      -15.1270246549  W2        375             0.0000000000
      1124       375  TIP3      H1             13.8421016386       -5.6474156141      -14.1880846549  W2        375             0.0000000000
      1125       375  TIP3      H2             14.5540516386       -5.2638556141      -15.4678846549  W2        375             0.0000000000
      1126       376  TIP3      OH2            13.4267216386       -6.2651456141      -12.2051146549  W2        376             0.0000000000
      1127       376  TIP3      H1             12.9395916386       -7.0007356141      -12.5763746549  W2        376             0.0000000000
      1128       376  TIP3      H2             13.9759916386       -6.6587556141      -11.5271746549  W2        376             0.0000000000
      1129       377  TIP3      OH2            11.8774516386      -10.4753356141       -7.5670846549  W2        377             0.0000000000
      1130       377  TIP3      H1             11.0115616386      -10.5803656141       -7.1728546549  W2        377             0.0000000000
      1131       377  TIP3      H2             12.2540416386       -9.7170056141       -7.1206146549  W2        377             0.0000000000
      1132       378  TIP3      OH2            13.1784216386      -12.2189656141      -22.0528346549  W2        378             0.0000000000
      1133       378  TIP3      H1             14.0285616386      -11.7978756141      -21.9256746549  W2        378             0.0000000000
      1134       378  TIP3      H2             13.1839316386      -12.9589556141      -21.4456946549  W2        378             0.0000000000
      1135       379  TIP3      OH2            13.5729816386      -14.1652256141      -20.2292646549  W2        379             0.0000000000
      1136       379  TIP3      H1             12.8464416386      -14.6449656141      -19.8315046549  W2        379             0.0000000000
      1137       379  TIP3      H2             14.1543116386      -13.9597556141      -19.4971046549  W2        379             0.0000000000
      1138       380  TIP3      OH2            13.3321016386      -11.3804756141      -15.2815046549  W2        380             0.0000000000
      1139       380  TIP3      H1             14.1655216386      -11.7584756141      -15.5621446549  W2        380             0.0000000000
      1140       380  TIP3      H2             13.4441316386      -10.4373556141      -15.4005946549  W2        380             0.0000000000
      1141       381  TIP3      OH2            11.8183316386       -8.5027256141      -12.9746646549  W2        381             0.0000000000
      1142       381  TIP3      H1             11.1708616386       -8.1775756141      -12.3491446549  W2        381             0.0000000000
      1143       381  TIP3      H2             11.3007316386       -8.9429556141      -13.6488346549  W2        381             0.0000000000
      1144       382  TIP3      OH2            13.8412916386      -14.2643756141      -23.8381346549  W2        382             0.0000000000
      1145       382  TIP3      H1             13.3194016386      -13.9079656141      -24.5570446549  W2        382             0.0000000000
      1146       382  TIP3      H2             13.8082116386      -13.5895956141      -23.1600446549  W2        382             0.0000000000
      1147       383  TIP3      OH2            12.1901916386      -17.0248156141      -25.2874246549  W2        383             0.0000000000
      1148       383  TIP3      H1             12.2866316386      -16.3581156141      -25.9674546549  W2        383             0.0000000000
      1149       383  TIP3      H2             12.0501516386      -17.8401856141      -25.7688746549  W2        383             0.0000000000
      1150       384  TIP3      OH2            11.3596616386      -15.6445756141      -19.6663946549  W2        384             0.0000000000
      1151       384  TIP3      H1             11.2095416386      -16.5897156141      -19.6866146549  W2        384             0.0000000000
      1152       384  TIP3      H2             11.0061116386      -15.3634356141      -18.8224846549  W2        384             0.0000000000
      1153       385  TIP3      OH2            -3.6050983614      -13.5663556141      -15.6560146549  W2        385             0.0000000000
      1154       385  TIP3      H1             -3.4208083614      -13.6481856141      -16.5917246549  W2        385             0.0000000000
      1155       385  TIP3      H2             -2.7558083614      -13.6906556141      -15.2323746549  W2        385             0.0000000000
      1156       386  TIP3      OH2            12.2159516386      -13.6742456141      -10.0275646549  W2        386             0.0000000000
      1157       386  TIP3      H1             12.7986816386      -14.4090156141       -9.8358446549  W2        386             0.0000000000
      1158       386  TIP3      H2             12.7798816386      -12.9022156141       -9.9809846549  W2        386             0.0000000000
      1159       387  TIP3      OH2            13.7126616386      -15.7716656141       -9.3430246549  W2        387             0.0000000000
      1160       387  TIP3      H1             12.8493316386      -16.1504556141       -9.5085546549  W2        387             0.0000000000
      1161       387  TIP3      H2             14.3170316386      -16.5101856141       -9.4174446549  W2        387             0.0000000000
      1162       388  TIP3      OH2            11.4375716386      -19.6168356141      -26.1698746549  W2        388             0.0000000000
      1163       388  TIP3      H1             12.0481516386      -19.9881556141      -25.5330546549  W2        388             0.0000000000
      1164       388  TIP3      H2             10.6007216386      -20.0381456141      -25.9738746549  W2        388             0.0000000000
      1165       389  TIP3      OH2            11.0701416386      -18.0619956141      -21.2038846549  W2        389             0.0000000000
      1166       389  TIP3      H1             11.3498516386      -18.9689556141      -21.0797146549  W2        389             0.0000000000
      1167       389  TIP3      H2             11.8293116386      -17.6278456141      -21.5929646549  W2        389             0.0000000000
      1168       390  TIP3      OH2            11.6819716386      -17.4802556141      -15.7679946549  W2        390             0.0000000000
      1169       390  TIP3      H1             12.6147716386      -17.2682656141      -15.8023946549  W2        390             0.0000000000
      1170       390  TIP3      H2             11.4467216386      -17.3790456141      -14.8456946549  W2        390             0.0000000000
      1171       391  TIP3      OH2            11.7111616386      -16.7437256141      -12.9920546549  W2        391             0.0000000000
      1172       391  TIP3      H1             10.8682916386      -16.4756856141      -12.6260746549  W2        391             0.0000000000
      1173       391  TIP3      H2             12.1535916386      -15.9215356141      -13.2029446549  W2        391             0.0000000000
      1174       392  TIP3      OH2            -4.0076183614      -18.2958556141       -9.5151346549  W2        392             0.0000000000
      1175       392  TIP3      H1             -3.0881283614      -18.4180256141       -9.2788246549  W2        392             0.0000000000
      1176       392  TIP3      H2             -4.4571683614      -19.0458856141       -9.1257846549  W2        392             0.0000000000
      1177       393  TIP3      OH2            13.9943216386      -22.7637056141       -7.6385546549  W2        393             0.0000000000
      1178       393  TIP3      H1             14.3440216386      -23.4173556141       -8.2440846549  W2        393             0.0000000000
      1179       393  TIP3      H2             14.1412716386      -21.9262956141       -8.0782946549  W2        393             0.0000000000
      1180       394  TIP3      OH2            11.6836216386      -20.7990656141      -21.1556846549  W2        394             0.0000000000
      1181       394  TIP3      H1             11.8661216386      -21.2479156141      -20.3301846549  W2        394             0.0000000000
      1182       394  TIP3      H2             11.0839116386      -21.3836256141      -21.6192246549  W2        394             0.0000000000
      1183       395  TIP3      OH2            -2.7863683614      -19.9836956141      -16.6238446549  W2        395             0.0000000000
      1184       395  TIP3      H1             -2.3412083614      -20.7754456141      -16.3218746549  W2        395             0.0000000000
      1185       395  TIP3      H2             -2.3200683614      -19.2671756141      -16.1932846549  W2        395             0.0000000000
      1186       396  TIP3      OH2            -4.4823383614      -16.9843956141      -15.5548246549  W2        396             0.0000000000
      1187       396  TIP3      H1             -3.9903583614      -17.2053456141      -16.3456246549  W2        396             0.0000000000
      1188       396  TIP3      H2             -4.1202483614      -16.1440556141      -15.2738746549  W2        396             0.0000000000
      1189       397  TIP3      OH2            13.5140416386      -20.6542456141       -9.2894246549  W2        397             0.0000000000
      1190       397  TIP3      H1             12.5966116386      -20.3835356141       -9.3250746549  W2        397             0.0000000000
      1191       397  TIP3      H2             13.6369816386      -21.1894056141      -10.0734546549  W2        397             0.0000000000
      1192       398  TIP3      OH2            13.5502416386      -20.7312556141      -24.6276546549  W2        398             0.0000000000
      1193       398  TIP3      H1             13.9625016386      -21.4526856141      -25.1028546549  W2        398             0.0000000000
      1194       398  TIP3      H2             14.2318916386      -20.0617956141      -24.5692246549  W2        398             0.0000000000
      1195       399  TIP3      OH2            -4.1686883614      -20.7264856141      -21.5005846549  W2        399             0.0000000000
      1196       399  TIP3      H1             -5.0938483614      -20.5178256141      -21.6300346549  W2        399             0.0000000000
      1197       399  TIP3      H2             -3.7146983614      -20.2424056141      -22.1903546549  W2        399             0.0000000000
      1198       400  TIP3      OH2            10.6020316386       -5.7423156141      -19.5548446549  W2        400             0.0000000000
      1199       400  TIP3      H1             11.2543216386       -6.0901056141      -20.1629346549  W2        400             0.0000000000
      1200       400  TIP3      H2             11.1124116386       -5.2539956141      -18.9088746549  W2        400             0.0000000000
      1201       401  TIP3      OH2            -4.2051483614      -21.9885856141      -13.1563346549  W2        401             0.0000000000
      1202       401  TIP3      H1             -4.8700983614      -22.2345556141      -12.5132446549  W2        401             0.0000000000
      1203       401  TIP3      H2             -4.6480183614      -21.3665456141      -13.7335346549  W2        401             0.0000000000
      1204       402  TIP3      OH2            -2.0132183614       -8.8131756141       -9.0117546549  W2        402             0.0000000000
      1205       402  TIP3      H1             -2.8339683614       -8.6385256141       -9.4722846549  W2        402             0.0000000000
      1206       402  TIP3      H2             -2.2654383614       -8.8867056141       -8.0913146549  W2        402             0.0000000000
      1207       403  TIP3      OH2             0.9410716386       -7.8390556141      -12.7533546549  W2        403             0.0000000000
      1208       403  TIP3      H1              0.5161816386       -7.0292056141      -13.0358946549  W2        403             0.0000000000
      1209       403  TIP3      H2              1.8453516386       -7.7536456141      -13.0553746549  W2        403             0.0000000000
      1210       404  TIP3      OH2             5.2522116386       -6.4400556141       -9.7939846549  W2        404             0.0000000000
      1211       404  TIP3      H1              5.4369616386       -6.7734456141       -8.9159546549  W2        404             0.0000000000
      1212       404  TIP3      H2              6.0986616386       -6.1301956141      -10.1160646549  W2        404             0.0000000000
      1213       405  TIP3      OH2             7.5972516386       -5.1541656141      -10.5498446549  W2        405             0.0000000000
      1214       405  TIP3      H1              8.2741416386       -5.7869356141      -10.7899246549  W2        405             0.0000000000
      1215       405  TIP3      H2              7.9191316386       -4.7531156141       -9.7425146549  W2        405             0.0000000000
      1216       406  TIP3      OH2            12.5146316386      -22.5646156141      -11.4703446549  W2        406             0.0000000000
      1217       406  TIP3      H1             11.7019816386      -22.2395856141      -11.8578746549  W2        406             0.0000000000
      1218       406  TIP3      H2             12.7474816386      -23.3247656141      -12.0034346549  W2        406             0.0000000000
      1219       407  TIP3      OH2            -1.6572583614       -4.5826656141      -12.7058246549  W2        407             0.0000000000
      1220       407  TIP3      H1             -2.3776183614       -4.1425656141      -13.1570546549  W2        407             0.0000000000
      1221       407  TIP3      H2             -2.0228583614       -4.8331956141      -11.8574246549  W2        407             0.0000000000
      1222       408  TIP3      OH2             0.8100016386       -4.9822756141      -13.6761046549  W2        408             0.0000000000
      1223       408  TIP3      H1             -0.0547783614       -4.9104256141      -13.2720946549  W2        408             0.0000000000
      1224       408  TIP3      H2              0.7549016386       -4.4355456141      -14.4598546549  W2        408             0.0000000000
      1225       409  TIP3      OH2             5.5205616386       -5.0943856141      -14.5005046549  W2        409             0.0000000000
      1226       409  TIP3      H1              5.0639616386       -4.5654156141      -15.1546646549  W2        409             0.0000000000
      1227       409  TIP3      H2              5.6833616386       -4.4912456141      -13.7752746549  W2        409             0.0000000000
      1228       410  TIP3      OH2             7.8481916386       -6.2164256141      -13.5554746549  W2        410             0.0000000000
      1229       410  TIP3      H1              6.9435616386       -6.0514056141      -13.8212646549  W2        410             0.0000000000
      1230       410  TIP3      H2              8.2770516386       -5.3632056141      -13.6211346549  W2        410             0.0000000000
      1231       411  TIP3      OH2            10.4523816386       -4.6465156141      -13.2606946549  W2        411             0.0000000000
      1232       411  TIP3      H1             10.2705816386       -3.7306256141      -13.4712046549  W2        411             0.0000000000
      1233       411  TIP3      H2             10.6291616386       -5.0568056141      -14.1072346549  W2        411             0.0000000000
      1234       412  TIP3      OH2            -2.2424483614       -5.9594156141      -15.7956446549  W2        412             0.0000000000
      1235       412  TIP3      H1             -2.2608483614       -6.3849056141      -14.9384146549  W2        412             0.0000000000
      1236       412  TIP3      H2             -1.4376583614       -6.2779156141      -16.2044246549  W2        412             0.0000000000
      1237       413  TIP3      OH2            -0.1011383614       -7.2495456141      -17.1406546549  W2        413             0.0000000000
      1238       413  TIP3      H1             -0.3200683614       -8.1658056141      -16.9710546549  W2        413             0.0000000000
      1239       413  TIP3      H2              0.7230816386       -7.1095056141      -16.6745146549  W2        413             0.0000000000
      1240       414  TIP3      OH2             2.4361116386       -6.7796156141      -16.2918546549  W2        414             0.0000000000
      1241       414  TIP3      H1              2.6486816386       -7.6677156141      -16.5787646549  W2        414             0.0000000000
      1242       414  TIP3      H2              2.5006216386       -6.8138456141      -15.3374546549  W2        414             0.0000000000
      1243       415  TIP3      OH2             5.9444816386      -21.1155556141      -17.1475246549  W2        415             0.0000000000
      1244       415  TIP3      H1              5.2701616386      -21.7449956141      -16.8919446549  W2        415             0.0000000000
      1245       415  TIP3      H2              6.5084016386      -21.5996656141      -17.7507346549  W2        415             0.0000000000
      1246       416  TIP3      OH2            11.0872016386      -23.0081556141      -17.0348146549  W2        416             0.0000000000
      1247       416  TIP3      H1             11.6909616386      -22.4606156141      -17.5367146549  W2        416             0.0000000000
      1248       416  TIP3      H2             10.2174016386      -22.6891156141      -17.2754046549  W2        416             0.0000000000
      1249       417  TIP3      OH2            12.8142416386      -21.8692856141      -18.7017246549  W2        417             0.0000000000
      1250       417  TIP3      H1             13.4259916386      -22.3837156141      -19.2283646549  W2        417             0.0000000000
      1251       417  TIP3      H2             13.1965816386      -20.9920756141      -18.6782846549  W2        417             0.0000000000
      1252       418  TIP3      OH2            -1.7287683614      -22.4815256141      -19.3255346549  W2        418             0.0000000000
      1253       418  TIP3      H1             -2.5057883614      -22.7160356141      -19.8329446549  W2        418             0.0000000000
      1254       418  TIP3      H2             -1.1984083614      -23.2783156141      -19.3167346549  W2        418             0.0000000000
      1255       419  TIP3      OH2            -2.8924283614      -22.6837156141      -23.5219246549  W2        419             0.0000000000
      1256       419  TIP3      H1             -2.4533583614      -22.0726656141      -24.1135746549  W2        419             0.0000000000
      1257       419  TIP3      H2             -3.5261883614      -22.1453056141      -23.0479246549  W2        419             0.0000000000
      1258       420  TIP3      OH2             2.8504916386      -22.5548156141      -19.5122246549  W2        420             0.0000000000
      1259       420  TIP3      H1              3.7248316386      -22.1663856141      -19.5417946549  W2        420             0.0000000000
      1260       420  TIP3      H2              2.7145716386      -22.7700356141      -18.5895046549  W2        420             0.0000000000
      1261       421  TIP3      OH2             8.4073316386      -22.5248356141      -17.8630546549  W2        421             0.0000000000
      1262       421  TIP3      H1              8.4834916386      -22.4296756141      -18.8124546549  W2        421             0.0000000000
      1263       421  TIP3      H2              8.1322516386      -23.4325456141      -17.7341446549  W2        421             0.0000000000
      1264       422  TIP3      OH2             9.7605916386      -22.4990556141      -22.1705546549  W2        422             0.0000000000
      1265       422  TIP3      H1              9.0577016386      -21.8841356141      -22.3804146549  W2        422             0.0000000000
      1266       422  TIP3      H2              9.3157316386      -23.3363856141      -22.0394646549  W2        422             0.0000000000
      1267       423  TIP3      OH2            -2.9914783614       -6.7354956141      -22.6244146549  W2        423             0.0000000000
      1268       423  TIP3      H1             -3.6764883614       -6.7736056141      -23.2919046549  W2        423             0.0000000000
      1269       423  TIP3      H2             -2.9877583614       -5.8227356141      -22.3362046549  W2        423             0.0000000000
      1270       424  TIP3      OH2            -1.0315183614      -20.7675656141      -25.0795146549  W2        424             0.0000000000
      1271       424  TIP3      H1             -0.5401783614      -21.3973256141      -25.6069646549  W2        424             0.0000000000
      1272       424  TIP3      H2             -0.4078883614      -20.4716256141      -24.4163946549  W2        424             0.0000000000
      1273       425  TIP3      OH2             3.9944916386      -20.4744156141      -22.6224646549  W2        425             0.0000000000
      1274       425  TIP3      H1              4.1726216386      -21.1210956141      -21.9396046549  W2        425             0.0000000000
      1275       425  TIP3      H2              3.9411116386      -19.6406456141      -22.1553546549  W2        425             0.0000000000
      1276       426  TIP3      OH2             5.8728716386       -5.5260056141      -24.2267946549  W2        426             0.0000000000
      1277       426  TIP3      H1              6.7388916386       -5.1592656141      -24.4049746549  W2        426             0.0000000000
      1278       426  TIP3      H2              5.6261516386       -5.9652056141      -25.0407146549  W2        426             0.0000000000
      1279       427  TIP3      OH2            12.5818316386       -5.9629756141      -21.5476846549  W2        427             0.0000000000
      1280       427  TIP3      H1             12.3875416386       -6.7107656141      -22.1127246549  W2        427             0.0000000000
      1281       427  TIP3      H2             12.5428416386       -5.2049656141      -22.1308946549  W2        427             0.0000000000
      1282       428  TIP3      OH2            -1.7709683614      -21.9673356141       -9.8079146549  W2        428             0.0000000000
      1283       428  TIP3      H1             -2.1371483614      -22.7330756141       -9.3654446549  W2        428             0.0000000000
      1284       428  TIP3      H2             -0.8581183614      -21.9383156141       -9.5214046549  W2        428             0.0000000000
      1285       429  TIP3      OH2             0.2021116386      -22.6168956141       -8.2722046549  W2        429             0.0000000000
      1286       429  TIP3      H1              1.1004716386      -22.8908756141       -8.4568646549  W2        429             0.0000000000
      1287       429  TIP3      H2             -0.1845783614      -23.3592956141       -7.8079446549  W2        429             0.0000000000
      1288       430  TIP3      OH2            -1.1733583614       -5.8154156141      -25.5992046549  W2        430             0.0000000000
      1289       430  TIP3      H1             -1.4408983614       -5.5291256141      -24.7258946549  W2        430             0.0000000000
      1290       430  TIP3      H2             -0.4020983614       -6.3614956141      -25.4469546549  W2        430             0.0000000000
      1291       431  TIP3      OH2             8.6233416386      -23.2843656141       -8.0899246549  W2        431             0.0000000000
      1292       431  TIP3      H1              8.7000616386      -23.7102956141       -7.2361546549  W2        431             0.0000000000
      1293       431  TIP3      H2              9.5170016386      -23.2708956141       -8.4325746549  W2        431             0.0000000000
      1294       432  TIP3      OH2            11.7994516386       -7.2117356141       -9.3975046549  W2        432             0.0000000000
      1295       432  TIP3      H1             11.0176416386       -7.3979356141       -9.9174446549  W2        432             0.0000000000
      1296       432  TIP3      H2             11.7274416386       -6.2823056141       -9.1802546549  W2        432             0.0000000000
      1297       433  TIP3      OH2            17.5071216386      -14.4560156141      -14.3549746549  W2        433             0.0000000000
      1298       433  TIP3      H1             17.5483316386      -15.0816856141      -13.6317346549  W2        433             0.0000000000
      1299       433  TIP3      H2             18.2098916386      -13.8321556141      -14.1729346549  W2        433             0.0000000000
      1300       434  TIP3      OH2            18.4304316386      -10.0061256141      -15.8200646549  W2        434             0.0000000000
      1301       434  TIP3      H1             18.0609516386      -10.8080756141      -16.1896346549  W2        434             0.0000000000
      1302       434  TIP3      H2             19.3715416386      -10.1746356141      -15.7737246549  W2        434             0.0000000000
      1303       435  TIP3      OH2            15.0404816386      -16.3458656141      -20.4271846549  W2        435             0.0000000000
      1304       435  TIP3      H1             14.5928216386      -15.4999956141      -20.4455346549  W2        435             0.0000000000
      1305       435  TIP3      H2             14.4796016386      -16.9254456141      -20.9426746549  W2        435             0.0000000000
      1306       436  TIP3      OH2            15.7510916386      -14.1839056141      -18.3013846549  W2        436             0.0000000000
      1307       436  TIP3      H1             15.9644416386      -14.9537456141      -17.7740846549  W2        436             0.0000000000
      1308       436  TIP3      H2             16.4888516386      -14.0942356141      -18.9046246549  W2        436             0.0000000000
      1309       437  TIP3      OH2            19.8235916386      -19.1422056141      -17.9419046549  W2        437             0.0000000000
      1310       437  TIP3      H1             19.8667016386      -18.2823556141      -18.3602746549  W2        437             0.0000000000
      1311       437  TIP3      H2             19.3660016386      -19.6947356141      -18.5755846549  W2        437             0.0000000000
      1312       438  TIP3      OH2            16.4437416386      -16.7456256141      -17.1797646549  W2        438             0.0000000000
      1313       438  TIP3      H1             17.0974016386      -17.2954556141      -16.7477546549  W2        438             0.0000000000
      1314       438  TIP3      H2             16.4676716386      -17.0197256141      -18.0965646549  W2        438             0.0000000000
      1315       439  TIP3      OH2            21.6001916386      -15.1954956141      -17.9646146549  W2        439             0.0000000000
      1316       439  TIP3      H1             22.2162916386      -15.7219556141      -17.4552146549  W2        439             0.0000000000
      1317       439  TIP3      H2             21.0140716386      -15.8356256141      -18.3682546549  W2        439             0.0000000000
      1318       440  TIP3      OH2            18.6337816386      -20.2243656141      -13.8678246549  W2        440             0.0000000000
      1319       440  TIP3      H1             18.4149516386      -19.6943056141      -14.6342246549  W2        440             0.0000000000
      1320       440  TIP3      H2             17.9658716386      -19.9978156141      -13.2206846549  W2        440             0.0000000000
      1321       441  TIP3      OH2            21.2029216386      -12.5487956141      -13.5804546549  W2        441             0.0000000000
      1322       441  TIP3      H1             20.4628316386      -11.9506456141      -13.4769346549  W2        441             0.0000000000
      1323       441  TIP3      H2             21.9168716386      -11.9948356141      -13.8960946549  W2        441             0.0000000000
      1324       442  TIP3      OH2            18.2275116386      -18.3321856141      -15.9156046549  W2        442             0.0000000000
      1325       442  TIP3      H1             18.8411416386      -17.6994256141      -15.5423646549  W2        442             0.0000000000
      1326       442  TIP3      H2             18.7395816386      -18.8046856141      -16.5719146549  W2        442             0.0000000000
      1327       443  TIP3      OH2            19.6103516386      -10.5844956141      -12.7933046549  W2        443             0.0000000000
      1328       443  TIP3      H1             19.6051116386       -9.7051456141      -13.1713746549  W2        443             0.0000000000
      1329       443  TIP3      H2             18.7567616386      -10.6680856141      -12.3683146549  W2        443             0.0000000000
      1330       444  TIP3      OH2            15.7314416386      -10.9137056141      -22.0113746549  W2        444             0.0000000000
      1331       444  TIP3      H1             15.4595316386      -10.6846056141      -22.9000846549  W2        444             0.0000000000
      1332       444  TIP3      H2             15.7770116386      -10.0758256141      -21.5508446549  W2        444             0.0000000000
      1333       445  TIP3      OH2            22.6602516386      -22.9188556141      -16.4153346549  W2        445             0.0000000000
      1334       445  TIP3      H1             22.5426716386      -23.8672556141      -16.4695046549  W2        445             0.0000000000
      1335       445  TIP3      H2             21.8052616386      -22.5862456141      -16.1422246549  W2        445             0.0000000000
      1336       446  TIP3      OH2            19.9778816386      -13.2413456141      -19.0806646549  W2        446             0.0000000000
      1337       446  TIP3      H1             19.6474016386      -13.6120056141      -19.8989646549  W2        446             0.0000000000
      1338       446  TIP3      H2             20.5662916386      -13.9119456141      -18.7338346549  W2        446             0.0000000000
      1339       447  TIP3      OH2            21.3446316386       -9.8132856141      -16.3994446549  W2        447             0.0000000000
      1340       447  TIP3      H1             21.2497616386      -10.3919756141      -17.1559846549  W2        447             0.0000000000
      1341       447  TIP3      H2             22.0739916386      -10.1847156141      -15.9031646549  W2        447             0.0000000000
      1342       448  TIP3      OH2            20.3444316386      -14.4727856141      -15.4471646549  W2        448             0.0000000000
      1343       448  TIP3      H1             20.9096816386      -14.3513656141      -16.2100446549  W2        448             0.0000000000
      1344       448  TIP3      H2             20.6633216386      -13.8352856141      -14.8083146549  W2        448             0.0000000000
      1345       449  TIP3      OH2            21.2245016386      -10.0735156141      -10.7299746549  W2        449             0.0000000000
      1346       449  TIP3      H1             20.9132516386       -9.2911956141      -10.2746546549  W2        449             0.0000000000
      1347       449  TIP3      H2             20.5745216386      -10.2266056141      -11.4157746549  W2        449             0.0000000000
      1348       450  TIP3      OH2            18.1444916386      -13.8754056141      -11.5014046549  W2        450             0.0000000000
      1349       450  TIP3      H1             18.2148116386      -13.2247256141      -10.8029046549  W2        450             0.0000000000
      1350       450  TIP3      H2             17.2537116386      -13.7726556141      -11.8363146549  W2        450             0.0000000000
      1351       451  TIP3      OH2            19.4640916386       -8.0020156141       -9.9665946549  W2        451             0.0000000000
      1352       451  TIP3      H1             19.4716216386       -8.1380456141      -10.9140446549  W2        451             0.0000000000
      1353       451  TIP3      H2             18.5481316386       -8.1192056141       -9.7145946549  W2        451             0.0000000000
      1354       452  TIP3      OH2            18.9681516386      -14.1719156141      -21.4913846549  W2        452             0.0000000000
      1355       452  TIP3      H1             18.6762816386      -13.4037456141      -21.9822546549  W2        452             0.0000000000
      1356       452  TIP3      H2             18.2936716386      -14.8312956141      -21.6542446549  W2        452             0.0000000000
      1357       453  TIP3      OH2            15.0611616386      -11.8089956141      -12.6764046549  W2        453             0.0000000000
      1358       453  TIP3      H1             14.5600016386      -11.8370556141      -13.4914346549  W2        453             0.0000000000
      1359       453  TIP3      H2             15.0665316386      -12.7146756141      -12.3666746549  W2        453             0.0000000000
      1360       454  TIP3      OH2            14.8114316386       -9.0286156141      -15.7923846549  W2        454             0.0000000000
      1361       454  TIP3      H1             15.7574916386       -9.1729156141      -15.8114346549  W2        454             0.0000000000
      1362       454  TIP3      H2             14.6990616386       -8.2443356141      -15.2552646549  W2        454             0.0000000000
      1363       455  TIP3      OH2            18.0556416386       -6.2276556141      -19.6469146549  W2        455             0.0000000000
      1364       455  TIP3      H1             18.2076816386       -6.5756156141      -18.7682646549  W2        455             0.0000000000
      1365       455  TIP3      H2             17.2046816386       -6.5839256141      -19.9021946549  W2        455             0.0000000000
      1366       456  TIP3      OH2            17.3102116386      -10.4854556141      -11.6331246549  W2        456             0.0000000000
      1367       456  TIP3      H1             17.5263416386      -10.8468956141      -10.7735446549  W2        456             0.0000000000
      1368       456  TIP3      H2             16.4546816386      -10.8600756141      -11.8427746549  W2        456             0.0000000000
      1369       457  TIP3      OH2            19.9290116386      -22.0154056141      -15.6377046549  W2        457             0.0000000000
      1370       457  TIP3      H1             19.0673816386      -22.1025856141      -16.0454146549  W2        457             0.0000000000
      1371       457  TIP3      H2             19.9065816386      -21.1593956141      -15.2099446549  W2        457             0.0000000000
      1372       458  TIP3      OH2            20.0200216386      -17.0499556141      -14.5426846549  W2        458             0.0000000000
      1373       458  TIP3      H1             19.3782316386      -17.0902256141      -13.8336746549  W2        458             0.0000000000
      1374       458  TIP3      H2             20.0572216386      -16.1234856141      -14.7803846549  W2        458             0.0000000000
      1375       459  TIP3      OH2            20.0169316386      -16.8289456141      -19.6306846549  W2        459             0.0000000000
      1376       459  TIP3      H1             19.1242216386      -17.1693356141      -19.6893046549  W2        459             0.0000000000
      1377       459  TIP3      H2             20.4675916386      -17.2058556141      -20.3863646549  W2        459             0.0000000000
      1378       460  TIP3      OH2            17.7700716386      -16.7296056141      -12.6754846549  W2        460             0.0000000000
      1379       460  TIP3      H1             17.7320116386      -16.3294456141      -11.8067746549  W2        460             0.0000000000
      1380       460  TIP3      H2             17.2791816386      -17.5463656141      -12.5851946549  W2        460             0.0000000000
      1381       461  TIP3      OH2            21.1358116386      -19.3553756141      -25.8768846549  W2        461             0.0000000000
      1382       461  TIP3      H1             20.7048816386      -19.8003656141      -25.1471446549  W2        461             0.0000000000
      1383       461  TIP3      H2             20.4176816386      -18.9837456141      -26.3891346549  W2        461             0.0000000000
      1384       462  TIP3      OH2            14.3781516386      -19.6134256141      -18.8250146549  W2        462             0.0000000000
      1385       462  TIP3      H1             15.0089216386      -19.6422156141      -18.1056246549  W2        462             0.0000000000
      1386       462  TIP3      H2             14.8275816386      -20.0385556141      -19.5554246549  W2        462             0.0000000000
      1387       463  TIP3      OH2            15.6523616386      -18.8672256141      -23.4009746549  W2        463             0.0000000000
      1388       463  TIP3      H1             16.1265316386      -18.2762356141      -23.9858846549  W2        463             0.0000000000
      1389       463  TIP3      H2             14.9350016386      -18.3369356141      -23.0539646549  W2        463             0.0000000000
      1390       464  TIP3      OH2            22.5984616386      -19.4011956141      -18.5442746549  W2        464             0.0000000000
      1391       464  TIP3      H1             21.6875716386      -19.3445156141      -18.2556746549  W2        464             0.0000000000
      1392       464  TIP3      H2             23.1037516386      -19.4616456141      -17.7335546549  W2        464             0.0000000000
      1393       465  TIP3      OH2            17.4268016386      -17.7725656141      -19.7175146549  W2        465             0.0000000000
      1394       465  TIP3      H1             16.5376016386      -17.6730156141      -20.0575546549  W2        465             0.0000000000
      1395       465  TIP3      H2             17.7232916386      -18.6142656141      -20.0637246549  W2        465             0.0000000000
      1396       466  TIP3      OH2            21.0799816386      -17.7723056141      -22.0610546549  W2        466             0.0000000000
      1397       466  TIP3      H1             22.0115316386      -17.6433056141      -21.8827446549  W2        466             0.0000000000
      1398       466  TIP3      H2             20.8650116386      -17.1028756141      -22.7105846549  W2        466             0.0000000000
      1399       467  TIP3      OH2            19.7540016386      -16.5780856141      -24.4944446549  W2        467             0.0000000000
      1400       467  TIP3      H1             19.2115116386      -16.9577056141      -25.1856846549  W2        467             0.0000000000
      1401       467  TIP3      H2             20.5874916386      -16.3836156141      -24.9230346549  W2        467             0.0000000000
      1402       468  TIP3      OH2            17.8891416386      -12.0208956141       -9.3952846549  W2        468             0.0000000000
      1403       468  TIP3      H1             18.6213816386      -11.7663056141       -8.8338346549  W2        468             0.0000000000
      1404       468  TIP3      H2             17.1090116386      -11.8163556141       -8.8797446549  W2        468             0.0000000000
      1405       469  TIP3      OH2            18.9204016386      -20.4772856141      -20.2388346549  W2        469             0.0000000000
      1406       469  TIP3      H1             18.6033516386      -21.3797556141      -20.2742946549  W2        469             0.0000000000
      1407       469  TIP3      H2             19.7018116386      -20.4755456141      -20.7916746549  W2        469             0.0000000000
      1408       470  TIP3      OH2            22.5450216386      -18.2252856141      -14.2432746549  W2        470             0.0000000000
      1409       470  TIP3      H1             21.7095516386      -17.7713356141      -14.1330346549  W2        470             0.0000000000
      1410       470  TIP3      H2             23.0690816386      -17.9494356141      -13.4912846549  W2        470             0.0000000000
      1411       471  TIP3      OH2            23.0892816386      -12.0125156141      -22.5586346549  W2        471             0.0000000000
      1412       471  TIP3      H1             22.3443816386      -12.5199856141      -22.8808446549  W2        471             0.0000000000
      1413       471  TIP3      H2             22.9550016386      -11.9637156141      -21.6121546549  W2        471             0.0000000000
      1414       472  TIP3      OH2            18.2141116386      -12.7175156141      -16.7888446549  W2        472             0.0000000000
      1415       472  TIP3      H1             18.9588316386      -12.7199456141      -17.3901946549  W2        472             0.0000000000
      1416       472  TIP3      H2             18.2917716386      -13.5411356141      -16.3073346549  W2        472             0.0000000000
      1417       473  TIP3      OH2            15.2220816386      -14.2568256141      -11.4739946549  W2        473             0.0000000000
      1418       473  TIP3      H1             15.4449416386      -14.6748656141      -10.6422446549  W2        473             0.0000000000
      1419       473  TIP3      H2             14.6200916386      -14.8693256141      -11.8967146549  W2        473             0.0000000000
      1420       474  TIP3      OH2            22.2385716386      -14.7398356141       -9.2610246549  W2        474             0.0000000000
      1421       474  TIP3      H1             21.9426516386      -14.9055356141      -10.1561146549  W2        474             0.0000000000
      1422       474  TIP3      H2             23.1700916386      -14.9598056141       -9.2716346549  W2        474             0.0000000000
      1423       475  TIP3      OH2            20.5890516386       -9.1996956141      -19.3846946549  W2        475             0.0000000000
      1424       475  TIP3      H1             21.1162716386       -8.4262556141      -19.5848146549  W2        475             0.0000000000
      1425       475  TIP3      H2             19.7089016386       -8.9747756141      -19.6862946549  W2        475             0.0000000000
      1426       476  TIP3      OH2            16.3438216386      -14.3372856141      -24.7974546549  W2        476             0.0000000000
      1427       476  TIP3      H1             16.9598116386      -13.7105656141      -24.4179746549  W2        476             0.0000000000
      1428       476  TIP3      H2             15.4820816386      -14.0213056141      -24.5258046549  W2        476             0.0000000000
      1429       477  TIP3      OH2            22.0162816386      -11.5367056141      -19.8082646549  W2        477             0.0000000000
      1430       477  TIP3      H1             21.7752816386      -10.6112656141      -19.7667346549  W2        477             0.0000000000
      1431       477  TIP3      H2             21.2756416386      -11.9955756141      -19.4118746549  W2        477             0.0000000000
      1432       478  TIP3      OH2            22.5309416386       -7.3873456141      -13.4931546549  W2        478             0.0000000000
      1433       478  TIP3      H1             22.8934116386       -6.5327856141      -13.7267146549  W2        478             0.0000000000
      1434       478  TIP3      H2             23.0624616386       -7.6791856141      -12.7525246549  W2        478             0.0000000000
      1435       479  TIP3      OH2            20.6993616386       -6.5149456141      -20.2630446549  W2        479             0.0000000000
      1436       479  TIP3      H1             19.7494116386       -6.4092056141      -20.2117146549  W2        479             0.0000000000
      1437       479  TIP3      H2             21.0511716386       -5.6942056141      -19.9182946549  W2        479             0.0000000000
      1438       480  TIP3      OH2            16.8560316386      -19.5035556141      -11.9158546549  W2        480             0.0000000000
      1439       480  TIP3      H1             15.9632616386      -19.1650156141      -11.9834546549  W2        480             0.0000000000
      1440       480  TIP3      H2             16.7573116386      -20.3589456141      -11.4977746549  W2        480             0.0000000000
      1441       481  TIP3      OH2            16.5072316386       -7.6991156141      -13.4809146549  W2        481             0.0000000000
      1442       481  TIP3      H1             16.7242616386       -8.6308756141      -13.5119446549  W2        481             0.0000000000
      1443       481  TIP3      H2             16.7535816386       -7.4246156141      -12.5976346549  W2        481             0.0000000000
      1444       482  TIP3      OH2            22.3686916386       -9.2476156141      -26.2716946549  W2        482             0.0000000000
      1445       482  TIP3      H1             22.6076716386       -9.9958056141      -26.8188046549  W2        482             0.0000000000
      1446       482  TIP3      H2             22.0998216386       -9.6354456141      -25.4389146549  W2        482             0.0000000000
      1447       483  TIP3      OH2            21.3057516386       -9.6772356141      -23.8154346549  W2        483             0.0000000000
      1448       483  TIP3      H1             21.4525516386      -10.1972556141      -23.0253446549  W2        483             0.0000000000
      1449       483  TIP3      H2             21.3029216386       -8.7704756141      -23.5088446549  W2        483             0.0000000000
      1450       484  TIP3      OH2            17.7588616386      -12.4249056141      -23.3048946549  W2        484             0.0000000000
      1451       484  TIP3      H1             17.0727916386      -12.0726556141      -22.7379246549  W2        484             0.0000000000
      1452       484  TIP3      H2             18.2816516386      -11.6619456141      -23.5514646549  W2        484             0.0000000000
      1453       485  TIP3      OH2            21.3817816386       -6.9361556141      -23.0843246549  W2        485             0.0000000000
      1454       485  TIP3      H1             21.5426516386       -6.1364056141      -23.5850646549  W2        485             0.0000000000
      1455       485  TIP3      H2             21.1845616386       -6.6295556141      -22.1992646549  W2        485             0.0000000000
      1456       486  TIP3      OH2            20.1162216386      -20.2382356141      -23.4685646549  W2        486             0.0000000000
      1457       486  TIP3      H1             20.0327016386      -19.3499256141      -23.1219246549  W2        486             0.0000000000
      1458       486  TIP3      H2             21.0062516386      -20.5035656141      -23.2368846549  W2        486             0.0000000000
      1459       487  TIP3      OH2            18.3747516386       -9.8110156141      -24.4081146549  W2        487             0.0000000000
      1460       487  TIP3      H1             18.9669016386       -9.1115356141      -24.1318746549  W2        487             0.0000000000
      1461       487  TIP3      H2             18.8340516386      -10.2440656141      -25.1276546549  W2        487             0.0000000000
      1462       488  TIP3      OH2            16.6906716386      -17.1467156141      -25.2921746549  W2        488             0.0000000000
      1463       488  TIP3      H1             16.6459316386      -16.2074056141      -25.1134746549  W2        488             0.0000000000
      1464       488  TIP3      H2             15.8029916386      -17.3822256141      -25.5619646549  W2        488             0.0000000000
      1465       489  TIP3      OH2            17.4988716386      -22.3650556141      -16.6190746549  W2        489             0.0000000000
      1466       489  TIP3      H1             17.2698516386      -22.3058056141      -17.5465746549  W2        489             0.0000000000
      1467       489  TIP3      H2             17.0562116386      -23.1565056141      -16.3126646549  W2        489             0.0000000000
      1468       490  TIP3      OH2            16.4292016386       -8.4243456141      -20.4584946549  W2        490             0.0000000000
      1469       490  TIP3      H1             15.5970616386       -7.9520756141      -20.4313546549  W2        490             0.0000000000
      1470       490  TIP3      H2             16.9750316386       -7.9145856141      -21.0571846549  W2        490             0.0000000000
      1471       491  TIP3      OH2            15.7175716386       -5.8119756141       -9.1286946549  W2        491             0.0000000000
      1472       491  TIP3      H1             16.2577916386       -6.0285756141       -8.3687746549  W2        491             0.0000000000
      1473       491  TIP3      H2             15.2363716386       -6.6173756141       -9.3184446549  W2        491             0.0000000000
      1474       492  TIP3      OH2            20.3149116386       -6.8925356141       -7.5082746549  W2        492             0.0000000000
      1475       492  TIP3      H1             21.0826316386       -7.3514556141       -7.1673546549  W2        492             0.0000000000
      1476       492  TIP3      H2             20.2935316386       -7.1185556141       -8.4381546549  W2        492             0.0000000000
      1477       493  TIP3      OH2            15.6245216386      -12.0015656141       -8.1742646549  W2        493             0.0000000000
      1478       493  TIP3      H1             15.7685716386      -12.9034956141       -8.4605946549  W2        493             0.0000000000
      1479       493  TIP3      H2             14.8522616386      -11.7153556141       -8.6620346549  W2        493             0.0000000000
      1480       494  TIP3      OH2            19.9658916386      -11.6579956141      -26.0418046549  W2        494             0.0000000000
      1481       494  TIP3      H1             20.0303016386      -12.4520356141      -25.5111646549  W2        494             0.0000000000
      1482       494  TIP3      H2             20.6188116386      -11.7767156141      -26.7316046549  W2        494             0.0000000000
      1483       495  TIP3      OH2            22.2801316386      -12.0317556141       -8.7416246549  W2        495             0.0000000000
      1484       495  TIP3      H1             21.9515116386      -11.7609456141       -9.5988846549  W2        495             0.0000000000
      1485       495  TIP3      H2             22.4319516386      -12.9727756141       -8.8291246549  W2        495             0.0000000000
      1486       496  TIP3      OH2            16.4571716386      -14.8012356141       -8.7543346549  W2        496             0.0000000000
      1487       496  TIP3      H1             16.8652916386      -15.6585756141       -8.8752746549  W2        496             0.0000000000
      1488       496  TIP3      H2             16.1969316386      -14.7871056141       -7.8333046549  W2        496             0.0000000000
      1489       497  TIP3      OH2            21.1152716386      -13.6853756141      -23.7360046549  W2        497             0.0000000000
      1490       497  TIP3      H1             20.6554716386      -14.1695456141      -23.0501546549  W2        497             0.0000000000
      1491       497  TIP3      H2             21.3701416386      -14.3538356141      -24.3719546549  W2        497             0.0000000000
      1492       498  TIP3      OH2            20.4042016386      -15.7926656141      -11.3800446549  W2        498             0.0000000000
      1493       498  TIP3      H1             19.7858116386      -15.1180056141      -11.0995746549  W2        498             0.0000000000
      1494       498  TIP3      H2             20.7483216386      -15.4712756141      -12.2134246549  W2        498             0.0000000000
      1495       499  TIP3      OH2            22.1863116386      -15.4421956141      -25.4736846549  W2        499             0.0000000000
      1496       499  TIP3      H1             22.0058116386      -15.5970756141      -26.4008546549  W2        499             0.0000000000
      1497       499  TIP3      H2             23.1363616386      -15.3343256141      -25.4288946549  W2        499             0.0000000000
      1498       500  TIP3      OH2            20.7435716386      -18.4375856141      -10.2977346549  W2        500             0.0000000000
      1499       500  TIP3      H1             20.8936616386      -19.1664556141      -10.8997646549  W2        500             0.0000000000
      1500       500  TIP3      H2             20.7458116386      -17.6604156141      -10.8565146549  W2        500             0.0000000000
      1501       501  TIP3      OH2            21.1561416386      -20.0680056141      -12.8049946549  W2        501             0.0000000000
      1502       501  TIP3      H1             21.6918916386      -19.6163356141      -13.4570646549  W2        501             0.0000000000
      1503       501  TIP3      H2             20.3041016386      -20.1760256141      -13.2275846549  W2        501             0.0000000000
      1504       502  TIP3      OH2            22.7379816386      -14.6283856141      -12.5654746549  W2        502             0.0000000000
      1505       502  TIP3      H1             23.4884616386      -14.7846356141      -13.1386946549  W2        502             0.0000000000
      1506       502  TIP3      H2             22.3988116386      -13.7767256141      -12.8409246549  W2        502             0.0000000000
      1507       503  TIP3      OH2            19.2222016386      -17.2392356141       -8.3861746549  W2        503             0.0000000000
      1508       503  TIP3      H1             18.4551016386      -17.7717556141       -8.5964146549  W2        503             0.0000000000
      1509       503  TIP3      H2             19.9011016386      -17.5491956141       -8.9855446549  W2        503             0.0000000000
      1510       504  TIP3      OH2            21.9616916386      -22.6114356141      -12.3736346549  W2        504             0.0000000000
      1511       504  TIP3      H1             21.8636516386      -21.6651156141      -12.4790146549  W2        504             0.0000000000
      1512       504  TIP3      H2             21.2193116386      -22.9840556141      -12.8492846549  W2        504             0.0000000000
      1513       505  TIP3      OH2            23.2257416386      -18.2898956141       -8.8097946549  W2        505             0.0000000000
      1514       505  TIP3      H1             22.9902816386      -18.5092256141       -7.9083046549  W2        505             0.0000000000
      1515       505  TIP3      H2             22.4424316386      -18.4967756141       -9.3195446549  W2        505             0.0000000000
      1516       506  TIP3      OH2            17.4024816386      -19.3188556141       -8.6817046549  W2        506             0.0000000000
      1517       506  TIP3      H1             17.6142216386      -20.0252456141       -9.2919546549  W2        506             0.0000000000
      1518       506  TIP3      H2             17.2912316386      -19.7562556141       -7.8375846549  W2        506             0.0000000000
      1519       507  TIP3      OH2            22.1835016386      -23.3176956141       -9.7023546549  W2        507             0.0000000000
      1520       507  TIP3      H1             22.8953416386      -23.9574756141       -9.7164446549  W2        507             0.0000000000
      1521       507  TIP3      H2             22.0825416386      -23.0508656141      -10.6160446549  W2        507             0.0000000000
      1522       508  TIP3      OH2            22.5372516386      -21.6348556141       -7.6487246549  W2        508             0.0000000000
      1523       508  TIP3      H1             22.4054716386      -22.1104756141       -8.4688746549  W2        508             0.0000000000
      1524       508  TIP3      H2             21.9379916386      -20.8904956141       -7.7040146549  W2        508             0.0000000000
      1525       509  TIP3      OH2            22.0834816386       -4.7518256141      -24.4723246549  W2        509             0.0000000000
      1526       509  TIP3      H1             23.0165516386       -4.5939556141      -24.3284846549  W2        509             0.0000000000
      1527       509  TIP3      H2             21.8193616386       -4.0765256141      -25.0971746549  W2        509             0.0000000000
      1528       510  TIP3      OH2            15.6519716386      -10.1154456141      -24.9895146549  W2        510             0.0000000000
      1529       510  TIP3      H1             16.5658916386      -10.0365556141      -24.7161246549  W2        510             0.0000000000
      1530       510  TIP3      H2             15.6592816386      -10.8024856141      -25.6559546549  W2        510             0.0000000000
      1531       511  TIP3      OH2            14.3010316386       -4.7225956141      -19.9121246549  W2        511             0.0000000000
      1532       511  TIP3      H1             13.6537416386       -5.1844256141      -20.4450046549  W2        511             0.0000000000
      1533       511  TIP3      H2             14.6554916386       -5.3942656141      -19.3295046549  W2        511             0.0000000000
      1534       512  TIP3      OH2            15.1709516386       -6.6418956141      -18.1075046549  W2        512             0.0000000000
      1535       512  TIP3      H1             14.8366316386       -7.5221656141      -17.9354846549  W2        512             0.0000000000
      1536       512  TIP3      H2             15.3931916386       -6.2963956141      -17.2429446549  W2        512             0.0000000000
      1537       513  TIP3      OH2            15.2509016386      -13.5663556141      -15.6560146549  W2        513             0.0000000000
      1538       513  TIP3      H1             15.4351916386      -13.6481856141      -16.5917246549  W2        513             0.0000000000
      1539       513  TIP3      H2             16.1001916386      -13.6906556141      -15.2323746549  W2        513             0.0000000000
      1540       514  TIP3      OH2            14.8483816386      -18.2958556141       -9.5151346549  W2        514             0.0000000000
      1541       514  TIP3      H1             15.7678716386      -18.4180256141       -9.2788246549  W2        514             0.0000000000
      1542       514  TIP3      H2             14.3988316386      -19.0458856141       -9.1257846549  W2        514             0.0000000000
      1543       515  TIP3      OH2            16.0696316386      -19.9836956141      -16.6238446549  W2        515             0.0000000000
      1544       515  TIP3      H1             16.5147916386      -20.7754456141      -16.3218746549  W2        515             0.0000000000
      1545       515  TIP3      H2             16.5359316386      -19.2671756141      -16.1932846549  W2        515             0.0000000000
      1546       516  TIP3      OH2            14.3736616386      -16.9843956141      -15.5548246549  W2        516             0.0000000000
      1547       516  TIP3      H1             14.8656416386      -17.2053456141      -16.3456246549  W2        516             0.0000000000
      1548       516  TIP3      H2             14.7357516386      -16.1440556141      -15.2738746549  W2        516             0.0000000000
      1549       517  TIP3      OH2            14.6873116386      -20.7264856141      -21.5005846549  W2        517             0.0000000000
      1550       517  TIP3      H1             13.7621516386      -20.5178256141      -21.6300346549  W2        517             0.0000000000
      1551       517  TIP3      H2             15.1413016386      -20.2424056141      -22.1903546549  W2        517             0.0000000000
      1552       518  TIP3      OH2            14.6508516386      -21.9885856141      -13.1563346549  W2        518             0.0000000000
      1553       518  TIP3      H1             13.9859016386      -22.2345556141      -12.5132446549  W2        518             0.0000000000
      1554       518  TIP3      H2             14.2079816386      -21.3665456141      -13.7335346549  W2        518             0.0000000000
      1555       519  TIP3      OH2            16.8427816386       -8.8131756141       -9.0117546549  W2        519             0.0000000000
      1556       519  TIP3      H1             16.0220316386       -8.6385256141       -9.4722846549  W2        519             0.0000000000
      1557       519  TIP3      H2             16.5905616386       -8.8867056141       -8.0913146549  W2        519             0.0000000000
      1558       520  TIP3      OH2            19.7970716386       -7.8390556141      -12.7533546549  W2        520             0.0000000000
      1559       520  TIP3      H1             19.3721816386       -7.0292056141      -13.0358946549  W2        520             0.0000000000
      1560       520  TIP3      H2             20.7013516386       -7.7536456141      -13.0553746549  W2        520             0.0000000000
      1561       521  TIP3      OH2            17.1987416386       -4.5826656141      -12.7058246549  W2        521             0.0000000000
      1562       521  TIP3      H1             16.4783816386       -4.1425656141      -13.1570546549  W2        521             0.0000000000
      1563       521  TIP3      H2             16.8331416386       -4.8331956141      -11.8574246549  W2        521             0.0000000000
      1564       522  TIP3      OH2            19.6660016386       -4.9822756141      -13.6761046549  W2        522             0.0000000000
      1565       522  TIP3      H1             18.8012216386       -4.9104256141      -13.2720946549  W2        522             0.0000000000
      1566       522  TIP3      H2             19.6109016386       -4.4355456141      -14.4598546549  W2        522             0.0000000000
      1567       523  TIP3      OH2            16.6135516386       -5.9594156141      -15.7956446549  W2        523             0.0000000000
      1568       523  TIP3      H1             16.5951516386       -6.3849056141      -14.9384146549  W2        523             0.0000000000
      1569       523  TIP3      H2             17.4183416386       -6.2779156141      -16.2044246549  W2        523             0.0000000000
      1570       524  TIP3      OH2            18.7548616386       -7.2495456141      -17.1406546549  W2        524             0.0000000000
      1571       524  TIP3      H1             18.5359316386       -8.1658056141      -16.9710546549  W2        524             0.0000000000
      1572       524  TIP3      H2             19.5790816386       -7.1095056141      -16.6745146549  W2        524             0.0000000000
      1573       525  TIP3      OH2            21.2921116386       -6.7796156141      -16.2918546549  W2        525             0.0000000000
      1574       525  TIP3      H1             21.5046816386       -7.6677156141      -16.5787646549  W2        525             0.0000000000
      1575       525  TIP3      H2             21.3566216386       -6.8138456141      -15.3374546549  W2        525             0.0000000000
      1576       526  TIP3      OH2            17.1272316386      -22.4815256141      -19.3255346549  W2        526             0.0000000000
      1577       526  TIP3      H1             16.3502116386      -22.7160356141      -19.8329446549  W2        526             0.0000000000
      1578       526  TIP3      H2             17.6575916386      -23.2783156141      -19.3167346549  W2        526             0.0000000000
      1579       527  TIP3      OH2            15.9635716386      -22.6837156141      -23.5219246549  W2        527             0.0000000000
      1580       527  TIP3      H1             16.4026416386      -22.0726656141      -24.1135746549  W2        527             0.0000000000
      1581       527  TIP3      H2             15.3298116386      -22.1453056141      -23.0479246549  W2        527             0.0000000000
      1582       528  TIP3      OH2            21.7064916386      -22.5548156141      -19.5122246549  W2        528             0.0000000000
      1583       528  TIP3      H1             22.5808316386      -22.1663856141      -19.5417946549  W2        528             0.0000000000
      1584       528  TIP3      H2             21.5705716386      -22.7700356141      -18.5895046549  W2        528             0.0000000000
      1585       529  TIP3      OH2            15.8645216386       -6.7354956141      -22.6244146549  W2        529             0.0000000000
      1586       529  TIP3      H1             15.1795116386       -6.7736056141      -23.2919046549  W2        529             0.0000000000
      1587       529  TIP3      H2             15.8682416386       -5.8227356141      -22.3362046549  W2        529             0.0000000000
      1588       530  TIP3      OH2            17.8244816386      -20.7675656141      -25.0795146549  W2        530             0.0000000000
      1589       530  TIP3      H1             18.3158216386      -21.3973256141      -25.6069646549  W2        530             0.0000000000
      1590       530  TIP3      H2             18.4481116386      -20.4716256141      -24.4163946549  W2        530             0.0000000000
      1591       531  TIP3      OH2            22.8504916386      -20.4744156141      -22.6224646549  W2        531             0.0000000000
      1592       531  TIP3      H1             23.0286216386      -21.1210956141      -21.9396046549  W2        531             0.0000000000
      1593       531  TIP3      H2             22.7971116386      -19.6406456141      -22.1553546549  W2        531             0.0000000000
      1594       532  TIP3      OH2            17.0850316386      -21.9673356141       -9.8079146549  W2        532             0.0000000000
      1595       532  TIP3      H1             16.7188516386      -22.7330756141       -9.3654446549  W2        532             0.0000000000
      1596       532  TIP3      H2             17.9978816386      -21.9383156141       -9.5214046549  W2        532             0.0000000000
      1597       533  TIP3      OH2            19.0581116386      -22.6168956141       -8.2722046549  W2        533             0.0000000000
      1598       533  TIP3      H1             19.9564716386      -22.8908756141       -8.4568646549  W2        533             0.0000000000
      1599       533  TIP3      H2             18.6714216386      -23.3592956141       -7.8079446549  W2        533             0.0000000000
      1600       534  TIP3      OH2            17.6826416386       -5.8154156141      -25.5992046549  W2        534             0.0000000000
      1601       534  TIP3      H1             17.4151016386       -5.5291256141      -24.7258946549  W2        534             0.0000000000
      1602       534  TIP3      H2             18.4539016386       -6.3614956141      -25.4469546549  W2        534             0.0000000000
      1603       535  TIP3      OH2           -11.5065083614        5.5307043859      -19.3667846549  W2        535             0.0000000000
      1604       535  TIP3      H1            -11.4173983614        6.4745243859      -19.4990746549  W2        535             0.0000000000
      1605       535  TIP3      H2            -12.1447483614        5.2553443859      -20.0248446549  W2        535             0.0000000000
      1606       536  TIP3      OH2           -12.5733783614        4.7857743859      -15.9479646549  W2        536             0.0000000000
      1607       536  TIP3      H1            -12.6116283614        4.1394043859      -15.2430046549  W2        536             0.0000000000
      1608       536  TIP3      H2            -12.8957283614        4.3192143859      -16.7190946549  W2        536             0.0000000000
      1609       537  TIP3      OH2           -20.2048783614        4.3999843859      -14.3549746549  W2        537             0.0000000000
      1610       537  TIP3      H1            -20.1636683614        3.7743143859      -13.6317346549  W2        537             0.0000000000
      1611       537  TIP3      H2            -19.5021083614        5.0238443859      -14.1729346549  W2        537             0.0000000000
      1612       538  TIP3      OH2            -8.8673583614        7.7248143859      -17.6464546549  W2        538             0.0000000000
      1613       538  TIP3      H1             -9.3080883614        7.0044143859      -17.1958946549  W2        538             0.0000000000
      1614       538  TIP3      H2             -8.8803883614        8.4455343859      -17.0166846549  W2        538             0.0000000000
      1615       539  TIP3      OH2           -19.2815683614        8.8498743859      -15.8200646549  W2        539             0.0000000000
      1616       539  TIP3      H1            -19.6510483614        8.0479243859      -16.1896346549  W2        539             0.0000000000
      1617       539  TIP3      H2            -18.3404583614        8.6813643859      -15.7737246549  W2        539             0.0000000000
      1618       540  TIP3      OH2           -22.6715183614        2.5101343859      -20.4271846549  W2        540             0.0000000000
      1619       540  TIP3      H1            -23.1191783614        3.3560043859      -20.4455346549  W2        540             0.0000000000
      1620       540  TIP3      H2            -23.2323983614        1.9305543859      -20.9426746549  W2        540             0.0000000000
      1621       541  TIP3      OH2           -21.9609083614        4.6720943859      -18.3013846549  W2        541             0.0000000000
      1622       541  TIP3      H1            -21.7475583614        3.9022543859      -17.7740846549  W2        541             0.0000000000
      1623       541  TIP3      H2            -21.2231483614        4.7617643859      -18.9046246549  W2        541             0.0000000000
      1624       542  TIP3      OH2           -11.7558083614       12.8289843859      -17.4344146549  W2        542             0.0000000000
      1625       542  TIP3      H1            -11.1361683614       12.1524543859      -17.7074946549  W2        542             0.0000000000
      1626       542  TIP3      H2            -11.9640683614       12.6110643859      -16.5259246549  W2        542             0.0000000000
      1627       543  TIP3      OH2           -14.1839383614        7.2179143859      -15.5418646549  W2        543             0.0000000000
      1628       543  TIP3      H1            -13.8801483614        6.5320543859      -16.1364546549  W2        543             0.0000000000
      1629       543  TIP3      H2            -13.4625383614        7.3367843859      -14.9240646549  W2        543             0.0000000000
      1630       544  TIP3      OH2            -5.5209583614       -1.1805556141      -14.6812446549  W2        544             0.0000000000
      1631       544  TIP3      H1             -5.4717383614       -0.5704356141      -13.9453346549  W2        544             0.0000000000
      1632       544  TIP3      H2             -5.0954483614       -0.7194656141      -15.4041346549  W2        544             0.0000000000
      1633       545  TIP3      OH2           -11.0432383614        1.6121543859      -15.2143846549  W2        545             0.0000000000
      1634       545  TIP3      H1            -10.9006483614        0.6658543859      -15.1942246549  W2        545             0.0000000000
      1635       545  TIP3      H2            -11.1493383614        1.8191343859      -16.1428946549  W2        545             0.0000000000
      1636       546  TIP3      OH2           -17.8884083614       -0.2862056141      -17.9419046549  W2        546             0.0000000000
      1637       546  TIP3      H1            -17.8452983614        0.5736443859      -18.3602746549  W2        546             0.0000000000
      1638       546  TIP3      H2            -18.3459983614       -0.8387356141      -18.5755846549  W2        546             0.0000000000
      1639       547  TIP3      OH2           -10.1661383614       -0.1556456141      -19.5410746549  W2        547             0.0000000000
      1640       547  TIP3      H1             -9.5197083614       -0.4843256141      -18.9163146549  W2        547             0.0000000000
      1641       547  TIP3      H2             -9.6561983614        0.3622543859      -20.1639346549  W2        547             0.0000000000
      1642       548  TIP3      OH2           -21.2682583614        2.1103743859      -17.1797646549  W2        548             0.0000000000
      1643       548  TIP3      H1            -20.6145983614        1.5605443859      -16.7477546549  W2        548             0.0000000000
      1644       548  TIP3      H2            -21.2443283614        1.8362743859      -18.0965646549  W2        548             0.0000000000
      1645       549  TIP3      OH2           -16.1118083614        3.6605043859      -17.9646146549  W2        549             0.0000000000
      1646       549  TIP3      H1            -15.4957083614        3.1340443859      -17.4552146549  W2        549             0.0000000000
      1647       549  TIP3      H2            -16.6979283614        3.0203743859      -18.3682546549  W2        549             0.0000000000
      1648       550  TIP3      OH2            -5.1294983614        0.2973643859      -12.4452646549  W2        550             0.0000000000
      1649       550  TIP3      H1             -5.8180383614        0.9554343859      -12.5406046549  W2        550             0.0000000000
      1650       550  TIP3      H2             -5.1140383614        0.1001543859      -11.5087246549  W2        550             0.0000000000
      1651       551  TIP3      OH2           -19.0782183614       -1.3683656141      -13.8678246549  W2        551             0.0000000000
      1652       551  TIP3      H1            -19.2970483614       -0.8383056141      -14.6342246549  W2        551             0.0000000000
      1653       551  TIP3      H2            -19.7461283614       -1.1418156141      -13.2206846549  W2        551             0.0000000000
      1654       552  TIP3      OH2           -11.7092383614        8.1317443859      -20.3239146549  W2        552             0.0000000000
      1655       552  TIP3      H1            -12.0047283614        7.8089743859      -21.1752246549  W2        552             0.0000000000
      1656       552  TIP3      H2            -12.0334583614        9.0314143859      -20.2826546549  W2        552             0.0000000000
      1657       553  TIP3      OH2           -16.5090783614        6.3072043859      -13.5804546549  W2        553             0.0000000000
      1658       553  TIP3      H1            -17.2491683614        6.9053543859      -13.4769346549  W2        553             0.0000000000
      1659       553  TIP3      H2            -15.7951283614        6.8611643859      -13.8960946549  W2        553             0.0000000000
      1660       554  TIP3      OH2            -8.4022983614       -0.8647156141      -17.5604846549  W2        554             0.0000000000
      1661       554  TIP3      H1             -8.6174983614       -1.6303756141      -17.0278846549  W2        554             0.0000000000
      1662       554  TIP3      H2             -7.7465583614       -0.3922556141      -17.0476346549  W2        554             0.0000000000
      1663       555  TIP3      OH2           -19.4844883614        0.5238143859      -15.9156046549  W2        555             0.0000000000
      1664       555  TIP3      H1            -18.8708583614        1.1565743859      -15.5423646549  W2        555             0.0000000000
      1665       555  TIP3      H2            -18.9724183614        0.0513143859      -16.5719146549  W2        555             0.0000000000
      1666       556  TIP3      OH2           -18.1016483614        8.2715043859      -12.7933046549  W2        556             0.0000000000
      1667       556  TIP3      H1            -18.1068883614        9.1508543859      -13.1713746549  W2        556             0.0000000000
      1668       556  TIP3      H2            -18.9552383614        8.1879143859      -12.3683146549  W2        556             0.0000000000
      1669       557  TIP3      OH2           -21.9805583614        7.9422943859      -22.0113746549  W2        557             0.0000000000
      1670       557  TIP3      H1            -22.2524683614        8.1713943859      -22.9000846549  W2        557             0.0000000000
      1671       557  TIP3      H2            -21.9349883614        8.7801743859      -21.5508446549  W2        557             0.0000000000
      1672       558  TIP3      OH2            -8.3555883614        9.5638843859      -15.2985246549  W2        558             0.0000000000
      1673       558  TIP3      H1             -9.2972183614        9.6222743859      -15.1368346549  W2        558             0.0000000000
      1674       558  TIP3      H2             -8.0789783614       10.4699343859      -15.4355546549  W2        558             0.0000000000
      1675       559  TIP3      OH2            -8.0548883614       -2.1495856141      -13.8811346549  W2        559             0.0000000000
      1676       559  TIP3      H1             -8.7909683614       -1.5388756141      -13.9190046549  W2        559             0.0000000000
      1677       559  TIP3      H2             -7.3714883614       -1.7346856141      -14.4074946549  W2        559             0.0000000000
      1678       560  TIP3      OH2           -15.0517483614       -4.0628556141      -16.4153346549  W2        560             0.0000000000
      1679       560  TIP3      H1            -15.1693283614       -5.0112556141      -16.4695046549  W2        560             0.0000000000
      1680       560  TIP3      H2            -15.9067383614       -3.7302456141      -16.1422246549  W2        560             0.0000000000
      1681       561  TIP3      OH2           -10.1034683614       11.3452343859      -18.6733646549  W2        561             0.0000000000
      1682       561  TIP3      H1             -9.6782383614       10.6380243859      -19.1584046549  W2        561             0.0000000000
      1683       561  TIP3      H2             -9.7864683614       12.1465043859      -19.0901446549  W2        561             0.0000000000
      1684       562  TIP3      OH2            -8.9438183614        9.2460843859      -20.1647046549  W2        562             0.0000000000
      1685       562  TIP3      H1             -9.2013383614        8.5560943859      -20.7761146549  W2        562             0.0000000000
      1686       562  TIP3      H2             -8.8727383614        8.8032043859      -19.3191146549  W2        562             0.0000000000
      1687       563  TIP3      OH2            -7.2577983614        7.8127543859      -11.6873546549  W2        563             0.0000000000
      1688       563  TIP3      H1             -7.1181683614        7.2210043859      -12.4266546549  W2        563             0.0000000000
      1689       563  TIP3      H2             -7.0905183614        8.6853443859      -12.0434746549  W2        563             0.0000000000
      1690       564  TIP3      OH2           -12.7852583614        4.7747043859      -21.9147546549  W2        564             0.0000000000
      1691       564  TIP3      H1            -13.4967083614        5.3096743859      -22.2667046549  W2        564             0.0000000000
      1692       564  TIP3      H2            -12.0942983614        4.8299143859      -22.5748646549  W2        564             0.0000000000
      1693       565  TIP3      OH2           -12.7313383614        3.2321343859      -24.8762546549  W2        565             0.0000000000
      1694       565  TIP3      H1            -12.0303483614        3.2548243859      -24.2248546549  W2        565             0.0000000000
      1695       565  TIP3      H2            -12.4290483614        2.6041043859      -25.5323246549  W2        565             0.0000000000
      1696       566  TIP3      OH2            -5.4158683614        4.1525543859      -13.6213146549  W2        566             0.0000000000
      1697       566  TIP3      H1             -6.0684583614        4.8471143859      -13.5322246549  W2        566             0.0000000000
      1698       566  TIP3      H2             -4.9508383614        4.3626443859      -14.4311546549  W2        566             0.0000000000
      1699       567  TIP3      OH2            -9.3794883614        4.9840343859      -20.9631646549  W2        567             0.0000000000
      1700       567  TIP3      H1            -10.1113883614        5.2124043859      -20.3901046549  W2        567             0.0000000000
      1701       567  TIP3      H2             -8.9322683614        4.2703043859      -20.5084146549  W2        567             0.0000000000
      1702       568  TIP3      OH2            -9.4821383614        3.1582943859      -11.8954646549  W2        568             0.0000000000
      1703       568  TIP3      H1             -9.4022283614        3.9217343859      -11.3236146549  W2        568             0.0000000000
      1704       568  TIP3      H2            -10.0833683614        3.4375343859      -12.5859546549  W2        568             0.0000000000
      1705       569  TIP3      OH2           -17.7341183614        5.6146543859      -19.0806646549  W2        569             0.0000000000
      1706       569  TIP3      H1            -18.0645983614        5.2439943859      -19.8989646549  W2        569             0.0000000000
      1707       569  TIP3      H2            -17.1457083614        4.9440543859      -18.7338346549  W2        569             0.0000000000
      1708       570  TIP3      OH2           -16.3673683614        9.0427143859      -16.3994446549  W2        570             0.0000000000
      1709       570  TIP3      H1            -16.4622383614        8.4640243859      -17.1559846549  W2        570             0.0000000000
      1710       570  TIP3      H2            -15.6380083614        8.6712843859      -15.9031646549  W2        570             0.0000000000
      1711       571  TIP3      OH2           -17.3675683614        4.3832143859      -15.4471646549  W2        571             0.0000000000
      1712       571  TIP3      H1            -16.8023183614        4.5046343859      -16.2100446549  W2        571             0.0000000000
      1713       571  TIP3      H2            -17.0486783614        5.0207143859      -14.8083146549  W2        571             0.0000000000
      1714       572  TIP3      OH2           -11.0583483614        9.8864043859      -14.7131146549  W2        572             0.0000000000
      1715       572  TIP3      H1            -11.2986883614       10.5487143859      -14.0651946549  W2        572             0.0000000000
      1716       572  TIP3      H2            -11.2565283614        9.0519243859      -14.2881546549  W2        572             0.0000000000
      1717       573  TIP3      OH2           -16.4874983614        8.7824843859      -10.7299746549  W2        573             0.0000000000
      1718       573  TIP3      H1            -16.7987483614        9.5648043859      -10.2746546549  W2        573             0.0000000000
      1719       573  TIP3      H2            -17.1374783614        8.6293943859      -11.4157746549  W2        573             0.0000000000
      1720       574  TIP3      OH2           -10.5085383614        4.1463243859      -23.2780446549  W2        574             0.0000000000
      1721       574  TIP3      H1             -9.9289883614        4.2963543859      -22.5311546549  W2        574             0.0000000000
      1722       574  TIP3      H2            -10.0945383614        4.6170643859      -24.0014046549  W2        574             0.0000000000
      1723       575  TIP3      OH2           -19.5675083614        4.9805943859      -11.5014046549  W2        575             0.0000000000
      1724       575  TIP3      H1            -19.4971883614        5.6312743859      -10.8029046549  W2        575             0.0000000000
      1725       575  TIP3      H2            -20.4582883614        5.0833443859      -11.8363146549  W2        575             0.0000000000
      1726       576  TIP3      OH2           -12.7820483614       10.8831743859      -19.8427346549  W2        576             0.0000000000
      1727       576  TIP3      H1            -12.3082883614       11.1788043859      -19.0653146549  W2        576             0.0000000000
      1728       576  TIP3      H2            -13.3451183614       11.6213343859      -20.0757746549  W2        576             0.0000000000
      1729       577  TIP3      OH2           -18.2479083614       10.8539843859       -9.9665946549  W2        577             0.0000000000
      1730       577  TIP3      H1            -18.2403783614       10.7179543859      -10.9140446549  W2        577             0.0000000000
      1731       577  TIP3      H2            -19.1638683614       10.7367943859       -9.7145946549  W2        577             0.0000000000
      1732       578  TIP3      OH2            -6.8096983614       -4.1036356141      -23.4650746549  W2        578             0.0000000000
      1733       578  TIP3      H1             -7.7096283614       -3.9647356141      -23.1700146549  W2        578             0.0000000000
      1734       578  TIP3      H2             -6.5578583614       -3.2721756141      -23.8669046549  W2        578             0.0000000000
      1735       579  TIP3      OH2           -18.7438483614        4.6840843859      -21.4913846549  W2        579             0.0000000000
      1736       579  TIP3      H1            -19.0357183614        5.4522543859      -21.9822546549  W2        579             0.0000000000
      1737       579  TIP3      H2            -19.4183283614        4.0247043859      -21.6542446549  W2        579             0.0000000000
      1738       580  TIP3      OH2            -5.6205583614       10.2626043859      -25.0886846549  W2        580             0.0000000000
      1739       580  TIP3      H1             -5.5472083614       11.2016243859      -24.9181546549  W2        580             0.0000000000
      1740       580  TIP3      H2             -4.7150483614        9.9574643859      -25.1449546549  W2        580             0.0000000000
      1741       581  TIP3      OH2           -22.6508383614        7.0470043859      -12.6764046549  W2        581             0.0000000000
      1742       581  TIP3      H1            -23.1519983614        7.0189443859      -13.4914346549  W2        581             0.0000000000
      1743       581  TIP3      H2            -22.6454683614        6.1413243859      -12.3666746549  W2        581             0.0000000000
      1744       582  TIP3      OH2           -22.9005683614        9.8273843859      -15.7923846549  W2        582             0.0000000000
      1745       582  TIP3      H1            -21.9545083614        9.6830843859      -15.8114346549  W2        582             0.0000000000
      1746       582  TIP3      H2            -23.0129383614       10.6116643859      -15.2552646549  W2        582             0.0000000000
      1747       583  TIP3      OH2            -4.7027183614       10.4933543859      -10.1100146549  W2        583             0.0000000000
      1748       583  TIP3      H1             -4.7520383614        9.5381643859      -10.1472546549  W2        583             0.0000000000
      1749       583  TIP3      H2             -5.5294883614       10.7608843859       -9.7086346549  W2        583             0.0000000000
      1750       584  TIP3      OH2           -13.7243183614       10.0672743859      -11.2338746549  W2        584             0.0000000000
      1751       584  TIP3      H1            -13.6368583614       10.8937343859      -10.7589646549  W2        584             0.0000000000
      1752       584  TIP3      H2            -14.5878083614        9.7376543859      -10.9849446549  W2        584             0.0000000000
      1753       585  TIP3      OH2           -13.3097383614       13.8396443859      -21.4278146549  W2        585             0.0000000000
      1754       585  TIP3      H1            -13.3851383614       13.7183643859      -22.3742946549  W2        585             0.0000000000
      1755       585  TIP3      H2            -13.2768683614       14.7889143859      -21.3093546549  W2        585             0.0000000000
      1756       586  TIP3      OH2           -19.6563583614       12.6283443859      -19.6469146549  W2        586             0.0000000000
      1757       586  TIP3      H1            -19.5043183614       12.2803843859      -18.7682646549  W2        586             0.0000000000
      1758       586  TIP3      H2            -20.5073183614       12.2720743859      -19.9021946549  W2        586             0.0000000000
      1759       587  TIP3      OH2           -10.2081383614       12.9936643859      -24.4255746549  W2        587             0.0000000000
      1760       587  TIP3      H1             -9.8332983614       12.2492743859      -24.8963146549  W2        587             0.0000000000
      1761       587  TIP3      H2            -10.2037683614       12.7237243859      -23.5072446549  W2        587             0.0000000000
      1762       588  TIP3      OH2           -10.5393283614       12.9193743859      -21.6763546549  W2        588             0.0000000000
      1763       588  TIP3      H1            -11.4743483614       13.0195643859      -21.4976546549  W2        588             0.0000000000
      1764       588  TIP3      H2            -10.2591383614       12.2099743859      -21.0980346549  W2        588             0.0000000000
      1765       589  TIP3      OH2            -7.5507383614        1.9866043859       -9.6297946549  W2        589             0.0000000000
      1766       589  TIP3      H1             -7.9580583614        2.4671643859      -10.3504646549  W2        589             0.0000000000
      1767       589  TIP3      H2             -7.5101683614        1.0812043859       -9.9377146549  W2        589             0.0000000000
      1768       590  TIP3      OH2           -20.4017883614        8.3705443859      -11.6331246549  W2        590             0.0000000000
      1769       590  TIP3      H1            -20.1856583614        8.0091043859      -10.7735446549  W2        590             0.0000000000
      1770       590  TIP3      H2            -21.2573183614        7.9959243859      -11.8427746549  W2        590             0.0000000000
      1771       591  TIP3      OH2           -17.7829883614       -3.1594056141      -15.6377046549  W2        591             0.0000000000
      1772       591  TIP3      H1            -18.6446183614       -3.2465856141      -16.0454146549  W2        591             0.0000000000
      1773       591  TIP3      H2            -17.8054183614       -2.3033956141      -15.2099446549  W2        591             0.0000000000
      1774       592  TIP3      OH2           -13.1202083614       -3.4373656141      -12.2630046549  W2        592             0.0000000000
      1775       592  TIP3      H1            -12.6998983614       -3.8526556141      -11.5099446549  W2        592             0.0000000000
      1776       592  TIP3      H2            -14.0532483614       -3.6160356141      -12.1458046549  W2        592             0.0000000000
      1777       593  TIP3      OH2            -9.7937183614        0.3181543859      -11.4095546549  W2        593             0.0000000000
      1778       593  TIP3      H1            -10.3077683614        0.1923743859      -10.6119546549  W2        593             0.0000000000
      1779       593  TIP3      H2             -9.9492483614        1.2304643859      -11.6539346549  W2        593             0.0000000000
      1780       594  TIP3      OH2            -9.0312283614        5.1791543859      -25.6482546549  W2        594             0.0000000000
      1781       594  TIP3      H1             -8.9891483614        4.9565443859      -26.5782546549  W2        594             0.0000000000
      1782       594  TIP3      H2             -8.1820183614        5.5778643859      -25.4582646549  W2        594             0.0000000000
      1783       595  TIP3      OH2           -13.4584783614       -0.9450256141      -24.9779246549  W2        595             0.0000000000
      1784       595  TIP3      H1            -13.7119983614       -0.9258656141      -24.0551146549  W2        595             0.0000000000
      1785       595  TIP3      H2            -13.7152683614       -1.8164856141      -25.2793046549  W2        595             0.0000000000
      1786       596  TIP3      OH2           -17.6919783614        1.8060443859      -14.5426846549  W2        596             0.0000000000
      1787       596  TIP3      H1            -18.3337683614        1.7657743859      -13.8336746549  W2        596             0.0000000000
      1788       596  TIP3      H2            -17.6547783614        2.7325143859      -14.7803846549  W2        596             0.0000000000
      1789       597  TIP3      OH2           -17.6950683614        2.0270543859      -19.6306846549  W2        597             0.0000000000
      1790       597  TIP3      H1            -18.5877783614        1.6866643859      -19.6893046549  W2        597             0.0000000000
      1791       597  TIP3      H2            -17.2444083614        1.6501443859      -20.3863646549  W2        597             0.0000000000
      1792       598  TIP3      OH2           -12.1595183614        2.4430843859      -20.8136046549  W2        598             0.0000000000
      1793       598  TIP3      H1            -12.5684883614        3.2579443859      -21.1051246549  W2        598             0.0000000000
      1794       598  TIP3      H2            -11.4388983614        2.3030943859      -21.4278946549  W2        598             0.0000000000
      1795       599  TIP3      OH2           -13.0573583614        2.6187243859       -9.3255346549  W2        599             0.0000000000
      1796       599  TIP3      H1            -13.6199783614        1.9138843859       -9.0047546549  W2        599             0.0000000000
      1797       599  TIP3      H2            -12.2310183614        2.4979143859       -8.8577746549  W2        599             0.0000000000
      1798       600  TIP3      OH2           -11.1547483614        1.8891243859      -17.9996346549  W2        600             0.0000000000
      1799       600  TIP3      H1            -11.3502983614        2.4948043859      -18.7145746549  W2        600             0.0000000000
      1800       600  TIP3      H2            -10.9734883614        1.0556443859      -18.4340046549  W2        600             0.0000000000
      1801       601  TIP3      OH2           -19.9419283614        2.1263943859      -12.6754846549  W2        601             0.0000000000
      1802       601  TIP3      H1            -19.9799883614        2.5265543859      -11.8067746549  W2        601             0.0000000000
      1803       601  TIP3      H2            -20.4328183614        1.3096343859      -12.5851946549  W2        601             0.0000000000
      1804       602  TIP3      OH2           -16.5761883614       -0.4993756141      -25.8768846549  W2        602             0.0000000000
      1805       602  TIP3      H1            -17.0071183614       -0.9443656141      -25.1471446549  W2        602             0.0000000000
      1806       602  TIP3      H2            -17.2943183614       -0.1277456141      -26.3891346549  W2        602             0.0000000000
      1807       603  TIP3      OH2           -23.3338483614       -0.7574256141      -18.8250146549  W2        603             0.0000000000
      1808       603  TIP3      H1            -22.7030783614       -0.7862156141      -18.1056246549  W2        603             0.0000000000
      1809       603  TIP3      H2            -22.8844183614       -1.1825556141      -19.5554246549  W2        603             0.0000000000
      1810       604  TIP3      OH2           -22.0596383614       -0.0112256141      -23.4009746549  W2        604             0.0000000000
      1811       604  TIP3      H1            -21.5854683614        0.5797643859      -23.9858846549  W2        604             0.0000000000
      1812       604  TIP3      H2            -22.7769983614        0.5190643859      -23.0539646549  W2        604             0.0000000000
      1813       605  TIP3      OH2           -11.8908283614        3.5272543859      -13.3283946549  W2        605             0.0000000000
      1814       605  TIP3      H1            -11.5673483614        2.8962243859      -13.9713446549  W2        605             0.0000000000
      1815       605  TIP3      H2            -12.3308983614        2.9924743859      -12.6676546549  W2        605             0.0000000000
      1816       606  TIP3      OH2           -15.1135383614       -0.5451956141      -18.5442746549  W2        606             0.0000000000
      1817       606  TIP3      H1            -16.0244283614       -0.4885156141      -18.2556746549  W2        606             0.0000000000
      1818       606  TIP3      H2            -14.6082483614       -0.6056456141      -17.7335546549  W2        606             0.0000000000
      1819       607  TIP3      OH2           -20.2851983614        1.0834343859      -19.7175146549  W2        607             0.0000000000
      1820       607  TIP3      H1            -21.1743983614        1.1829843859      -20.0575546549  W2        607             0.0000000000
      1821       607  TIP3      H2            -19.9887083614        0.2417343859      -20.0637246549  W2        607             0.0000000000
      1822       608  TIP3      OH2           -16.6320183614        1.0836943859      -22.0610546549  W2        608             0.0000000000
      1823       608  TIP3      H1            -15.7004683614        1.2126943859      -21.8827446549  W2        608             0.0000000000
      1824       608  TIP3      H2            -16.8469883614        1.7531243859      -22.7105846549  W2        608             0.0000000000
      1825       609  TIP3      OH2           -10.7083483614       -1.3105656141      -15.2800946549  W2        609             0.0000000000
      1826       609  TIP3      H1            -11.3851883614       -1.1792556141      -14.6161246549  W2        609             0.0000000000
      1827       609  TIP3      H2            -11.1938583614       -1.4656156141      -16.0903246549  W2        609             0.0000000000
      1828       610  TIP3      OH2           -17.9579983614        2.2779143859      -24.4944446549  W2        610             0.0000000000
      1829       610  TIP3      H1            -18.5004883614        1.8982943859      -25.1856846549  W2        610             0.0000000000
      1830       610  TIP3      H2            -17.1245083614        2.4723843859      -24.9230346549  W2        610             0.0000000000
      1831       611  TIP3      OH2            -7.4208383614       14.3609743859       -9.0033346549  W2        611             0.0000000000
      1832       611  TIP3      H1             -7.2209683614       14.7851643859       -9.8378046549  W2        611             0.0000000000
      1833       611  TIP3      H2             -6.7654683614       14.7047943859       -8.3962946549  W2        611             0.0000000000
      1834       612  TIP3      OH2           -19.8228583614        6.8351043859       -9.3952846549  W2        612             0.0000000000
      1835       612  TIP3      H1            -19.0906183614        7.0896943859       -8.8338346549  W2        612             0.0000000000
      1836       612  TIP3      H2            -20.6029883614        7.0396443859       -8.8797446549  W2        612             0.0000000000
      1837       613  TIP3      OH2           -13.7935683614        2.2421043859      -16.6573146549  W2        613             0.0000000000
      1838       613  TIP3      H1            -13.2292283614        1.6957643859      -17.2043546549  W2        613             0.0000000000
      1839       613  TIP3      H2            -13.9412283614        1.7202943859      -15.8685546549  W2        613             0.0000000000
      1840       614  TIP3      OH2           -18.7915983614       -1.6212856141      -20.2388346549  W2        614             0.0000000000
      1841       614  TIP3      H1            -19.1086483614       -2.5237556141      -20.2742946549  W2        614             0.0000000000
      1842       614  TIP3      H2            -18.0101883614       -1.6195456141      -20.7916746549  W2        614             0.0000000000
      1843       615  TIP3      OH2           -15.1669783614        0.6307143859      -14.2432746549  W2        615             0.0000000000
      1844       615  TIP3      H1            -16.0024483614        1.0846643859      -14.1330346549  W2        615             0.0000000000
      1845       615  TIP3      H2            -14.6429183614        0.9065643859      -13.4912846549  W2        615             0.0000000000
      1846       616  TIP3      OH2           -14.6227183614        6.8434843859      -22.5586346549  W2        616             0.0000000000
      1847       616  TIP3      H1            -15.3676183614        6.3360143859      -22.8808446549  W2        616             0.0000000000
      1848       616  TIP3      H2            -14.7569983614        6.8922843859      -21.6121546549  W2        616             0.0000000000
      1849       617  TIP3      OH2            -7.4728283614        5.9763043859      -13.7718746549  W2        617             0.0000000000
      1850       617  TIP3      H1             -6.8309483614        6.4329343859      -14.3156546549  W2        617             0.0000000000
      1851       617  TIP3      H2             -8.3031383614        6.0895443859      -14.2344646549  W2        617             0.0000000000
      1852       618  TIP3      OH2           -10.7250383614       -0.3425256141      -24.3593746549  W2        618             0.0000000000
      1853       618  TIP3      H1            -11.6636183614       -0.2309656141      -24.5104946549  W2        618             0.0000000000
      1854       618  TIP3      H2            -10.4278283614        0.5141643859      -24.0528046549  W2        618             0.0000000000
      1855       619  TIP3      OH2           -13.1035083614        7.0278143859      -11.3217246549  W2        619             0.0000000000
      1856       619  TIP3      H1            -13.4488983614        6.6460543859      -10.5147646549  W2        619             0.0000000000
      1857       619  TIP3      H2            -13.3034983614        7.9611743859      -11.2504346549  W2        619             0.0000000000
      1858       620  TIP3      OH2           -10.0066883614        1.5247443859      -22.6986346549  W2        620             0.0000000000
      1859       620  TIP3      H1             -9.1147883614        1.3872443859      -22.3795146549  W2        620             0.0000000000
      1860       620  TIP3      H2             -9.9503283614        2.3153543859      -23.2352846549  W2        620             0.0000000000
      1861       621  TIP3      OH2           -19.4978883614        6.1384843859      -16.7888446549  W2        621             0.0000000000
      1862       621  TIP3      H1            -18.7531683614        6.1360543859      -17.3901946549  W2        621             0.0000000000
      1863       621  TIP3      H2            -19.4202283614        5.3148643859      -16.3073346549  W2        621             0.0000000000
      1864       622  TIP3      OH2           -12.4973083614        8.3019143859      -23.5331746549  W2        622             0.0000000000
      1865       622  TIP3      H1            -12.7924683614        9.1287043859      -23.1516946549  W2        622             0.0000000000
      1866       622  TIP3      H2            -13.2003083614        7.6826043859      -23.3370346549  W2        622             0.0000000000
      1867       623  TIP3      OH2           -22.4899183614        4.5991743859      -11.4739946549  W2        623             0.0000000000
      1868       623  TIP3      H1            -22.2670583614        4.1811343859      -10.6422446549  W2        623             0.0000000000
      1869       623  TIP3      H2            -23.0919083614        3.9866743859      -11.8967146549  W2        623             0.0000000000
      1870       624  TIP3      OH2           -15.4734283614        4.1161643859       -9.2610246549  W2        624             0.0000000000
      1871       624  TIP3      H1            -15.7693483614        3.9504643859      -10.1561146549  W2        624             0.0000000000
      1872       624  TIP3      H2            -14.5419083614        3.8961943859       -9.2716346549  W2        624             0.0000000000
      1873       625  TIP3      OH2           -10.8531483614        9.4893643859      -11.3712246549  W2        625             0.0000000000
      1874       625  TIP3      H1            -11.7537183614        9.6726243859      -11.6388346549  W2        625             0.0000000000
      1875       625  TIP3      H2            -10.8190383614        9.7482943859      -10.4503446549  W2        625             0.0000000000
      1876       626  TIP3      OH2            -5.1218183614        1.7341543859      -23.0039646549  W2        626             0.0000000000
      1877       626  TIP3      H1             -5.6761883614        1.3379543859      -23.6762146549  W2        626             0.0000000000
      1878       626  TIP3      H2             -5.0214583614        2.6446743859      -23.2816346549  W2        626             0.0000000000
      1879       627  TIP3      OH2            -5.1586183614        7.5343243859      -10.1668146549  W2        627             0.0000000000
      1880       627  TIP3      H1             -6.0097683614        7.7727043859      -10.5341746549  W2        627             0.0000000000
      1881       627  TIP3      H2             -4.5682783614        7.5176443859      -10.9201046549  W2        627             0.0000000000
      1882       628  TIP3      OH2            -6.8266483614       10.5201943859      -22.5387546549  W2        628             0.0000000000
      1883       628  TIP3      H1             -7.1995383614        9.6945743859      -22.2296946549  W2        628             0.0000000000
      1884       628  TIP3      H2             -6.5492983614       10.3371343859      -23.4364146549  W2        628             0.0000000000
      1885       629  TIP3      OH2            -9.6662583614        5.3281443859      -15.5175646549  W2        629             0.0000000000
      1886       629  TIP3      H1            -10.5945683614        5.0963343859      -15.5446346549  W2        629             0.0000000000
      1887       629  TIP3      H2             -9.2151483614        4.5511243859      -15.8476846549  W2        629             0.0000000000
      1888       630  TIP3      OH2           -17.1229483614        9.6563043859      -19.3846946549  W2        630             0.0000000000
      1889       630  TIP3      H1            -16.5957283614       10.4297443859      -19.5848146549  W2        630             0.0000000000
      1890       630  TIP3      H2            -18.0030983614        9.8812243859      -19.6862946549  W2        630             0.0000000000
      1891       631  TIP3      OH2           -21.3681783614        4.5187143859      -24.7974546549  W2        631             0.0000000000
      1892       631  TIP3      H1            -20.7521883614        5.1454343859      -24.4179746549  W2        631             0.0000000000
      1893       631  TIP3      H2            -22.2299183614        4.8346943859      -24.5258046549  W2        631             0.0000000000
      1894       632  TIP3      OH2           -15.6957183614        7.3192943859      -19.8082646549  W2        632             0.0000000000
      1895       632  TIP3      H1            -15.9367183614        8.2447343859      -19.7667346549  W2        632             0.0000000000
      1896       632  TIP3      H2            -16.4363583614        6.8604243859      -19.4118746549  W2        632             0.0000000000
      1897       633  TIP3      OH2           -15.1810583614       11.4686543859      -13.4931546549  W2        633             0.0000000000
      1898       633  TIP3      H1            -14.8185883614       12.3232143859      -13.7267146549  W2        633             0.0000000000
      1899       633  TIP3      H2            -14.6495383614       11.1768143859      -12.7525246549  W2        633             0.0000000000
      1900       634  TIP3      OH2           -17.0126383614       12.3410543859      -20.2630446549  W2        634             0.0000000000
      1901       634  TIP3      H1            -17.9625883614       12.4467943859      -20.2117146549  W2        634             0.0000000000
      1902       634  TIP3      H2            -16.6608283614       13.1617943859      -19.9182946549  W2        634             0.0000000000
      1903       635  TIP3      OH2           -11.6369783614        7.5677243859      -13.7925946549  W2        635             0.0000000000
      1904       635  TIP3      H1            -12.0628483614        7.3398943859      -12.9661946549  W2        635             0.0000000000
      1905       635  TIP3      H2            -11.0563983614        6.8289043859      -13.9750646549  W2        635             0.0000000000
      1906       636  TIP3      OH2            -9.4340883614        8.4967743859      -24.7186946549  W2        636             0.0000000000
      1907       636  TIP3      H1             -9.0807783614        8.1167543859      -23.9143446549  W2        636             0.0000000000
      1908       636  TIP3      H2            -10.3827383614        8.4032543859      -24.6317646549  W2        636             0.0000000000
      1909       637  TIP3      OH2            -8.9785583614       12.1196743859      -11.3231146549  W2        637             0.0000000000
      1910       637  TIP3      H1             -9.5802383614       11.5639643859      -11.8184846549  W2        637             0.0000000000
      1911       637  TIP3      H2             -8.6971883614       12.7866543859      -11.9493746549  W2        637             0.0000000000
      1912       638  TIP3      OH2            -4.9306483614       12.9760243859      -24.5176746549  W2        638             0.0000000000
      1913       638  TIP3      H1             -4.1868583614       13.5620743859      -24.6575146549  W2        638             0.0000000000
      1914       638  TIP3      H2             -5.6248383614       13.5446043859      -24.1844346549  W2        638             0.0000000000
      1915       639  TIP3      OH2           -20.8559683614       -0.6475556141      -11.9158546549  W2        639             0.0000000000
      1916       639  TIP3      H1            -21.7487383614       -0.3090156141      -11.9834546549  W2        639             0.0000000000
      1917       639  TIP3      H2            -20.9546883614       -1.5029456141      -11.4977746549  W2        639             0.0000000000
      1918       640  TIP3      OH2            -8.5681583614        7.1689743859      -22.4919046549  W2        640             0.0000000000
      1919       640  TIP3      H1             -8.8453983614        6.4409043859      -21.9357946549  W2        640             0.0000000000
      1920       640  TIP3      H2             -7.6408583614        7.2881743859      -22.2866446549  W2        640             0.0000000000
      1921       641  TIP3      OH2           -21.2047683614       11.1568843859      -13.4809146549  W2        641             0.0000000000
      1922       641  TIP3      H1            -20.9877383614       10.2251243859      -13.5119446549  W2        641             0.0000000000
      1923       641  TIP3      H2            -20.9584183614       11.4313843859      -12.5976346549  W2        641             0.0000000000
      1924       642  TIP3      OH2           -15.3433083614        9.6083843859      -26.2716946549  W2        642             0.0000000000
      1925       642  TIP3      H1            -15.1043283614        8.8601943859      -26.8188046549  W2        642             0.0000000000
      1926       642  TIP3      H2            -15.6121783614        9.2205543859      -25.4389146549  W2        642             0.0000000000
      1927       643  TIP3      OH2           -16.4062483614        9.1787643859      -23.8154346549  W2        643             0.0000000000
      1928       643  TIP3      H1            -16.2594483614        8.6587443859      -23.0253446549  W2        643             0.0000000000
      1929       643  TIP3      H2            -16.4090783614       10.0855243859      -23.5088446549  W2        643             0.0000000000
      1930       644  TIP3      OH2           -19.9531383614        6.4310943859      -23.3048946549  W2        644             0.0000000000
      1931       644  TIP3      H1            -20.6392083614        6.7833443859      -22.7379246549  W2        644             0.0000000000
      1932       644  TIP3      H2            -19.4303483614        7.1940543859      -23.5514646549  W2        644             0.0000000000
      1933       645  TIP3      OH2           -12.1216283614       -0.9065256141      -13.0259946549  W2        645             0.0000000000
      1934       645  TIP3      H1            -11.4228383614       -0.8326556141      -12.3760246549  W2        645             0.0000000000
      1935       645  TIP3      H2            -12.5024883614       -1.7710256141      -12.8717046549  W2        645             0.0000000000
      1936       646  TIP3      OH2           -11.3371383614       -1.2543556141      -21.9287646549  W2        646             0.0000000000
      1937       646  TIP3      H1            -11.1173083614       -0.7828156141      -22.7322246549  W2        646             0.0000000000
      1938       646  TIP3      H2            -10.7787383614       -0.8600956141      -21.2587046549  W2        646             0.0000000000
      1939       647  TIP3      OH2           -13.6685283614       10.8761243859      -23.0660146549  W2        647             0.0000000000
      1940       647  TIP3      H1            -14.4849183614       11.3730943859      -23.0135846549  W2        647             0.0000000000
      1941       647  TIP3      H2            -13.1388983614       11.3514743859      -23.7061346549  W2        647             0.0000000000
      1942       648  TIP3      OH2           -14.1371483614        0.4735243859      -21.0939246549  W2        648             0.0000000000
      1943       648  TIP3      H1            -13.3248883614        0.9778443859      -21.0477546549  W2        648             0.0000000000
      1944       648  TIP3      H2            -14.3818483614        0.3284943859      -20.1799646549  W2        648             0.0000000000
      1945       649  TIP3      OH2           -13.6015083614        1.4597943859      -11.9092646549  W2        649             0.0000000000
      1946       649  TIP3      H1            -13.4824783614        2.0333343859      -11.1522246549  W2        649             0.0000000000
      1947       649  TIP3      H2            -12.9460483614        0.7717343859      -11.7944846549  W2        649             0.0000000000
      1948       650  TIP3      OH2           -13.2534783614       -2.4451756141      -20.1558146549  W2        650             0.0000000000
      1949       650  TIP3      H1            -13.6001283614       -1.8281156141      -19.5113846549  W2        650             0.0000000000
      1950       650  TIP3      H2            -12.5947883614       -1.9446056141      -20.6372646549  W2        650             0.0000000000
      1951       651  TIP3      OH2           -16.3302183614       11.9198443859      -23.0843246549  W2        651             0.0000000000
      1952       651  TIP3      H1            -16.1693483614       12.7195943859      -23.5850646549  W2        651             0.0000000000
      1953       651  TIP3      H2            -16.5274383614       12.2264443859      -22.1992646549  W2        651             0.0000000000
      1954       652  TIP3      OH2           -17.5957783614       -1.3822356141      -23.4685646549  W2        652             0.0000000000
      1955       652  TIP3      H1            -17.6792983614       -0.4939256141      -23.1219246549  W2        652             0.0000000000
      1956       652  TIP3      H2            -16.7057483614       -1.6475656141      -23.2368846549  W2        652             0.0000000000
      1957       653  TIP3      OH2            -7.3969283614       -0.6331756141      -11.0742946549  W2        653             0.0000000000
      1958       653  TIP3      H1             -8.3133483614       -0.3710056141      -11.1619246549  W2        653             0.0000000000
      1959       653  TIP3      H2             -7.0614283614       -0.6362756141      -11.9707646549  W2        653             0.0000000000
      1960       654  TIP3      OH2            -8.7948283614        3.1169243859      -16.9785646549  W2        654             0.0000000000
      1961       654  TIP3      H1             -9.5923883614        2.7019443859      -17.3070646549  W2        654             0.0000000000
      1962       654  TIP3      H2             -8.3497183614        2.4262943859      -16.4875146549  W2        654             0.0000000000
      1963       655  TIP3      OH2           -19.3372483614        9.0449843859      -24.4081146549  W2        655             0.0000000000
      1964       655  TIP3      H1            -18.7450983614        9.7444643859      -24.1318746549  W2        655             0.0000000000
      1965       655  TIP3      H2            -18.8779483614        8.6119343859      -25.1276546549  W2        655             0.0000000000
      1966       656  TIP3      OH2           -21.0213283614        1.7092843859      -25.2921746549  W2        656             0.0000000000
      1967       656  TIP3      H1            -21.0660683614        2.6485943859      -25.1134746549  W2        656             0.0000000000
      1968       656  TIP3      H2            -21.9090083614        1.4737743859      -25.5619646549  W2        656             0.0000000000
      1969       657  TIP3      OH2            -7.7083683614       12.3731743859      -15.3562146549  W2        657             0.0000000000
      1970       657  TIP3      H1             -7.8639383614       13.0516143859      -16.0132846549  W2        657             0.0000000000
      1971       657  TIP3      H2             -6.7757283614       12.4451043859      -15.1531546549  W2        657             0.0000000000
      1972       658  TIP3      OH2           -20.2131283614       -3.5090556141      -16.6190746549  W2        658             0.0000000000
      1973       658  TIP3      H1            -20.4421483614       -3.4498056141      -17.5465746549  W2        658             0.0000000000
      1974       658  TIP3      H2            -20.6557883614       -4.3005056141      -16.3126646549  W2        658             0.0000000000
      1975       659  TIP3      OH2           -21.2827983614       10.4316543859      -20.4584946549  W2        659             0.0000000000
      1976       659  TIP3      H1            -22.1149383614       10.9039243859      -20.4313546549  W2        659             0.0000000000
      1977       659  TIP3      H2            -20.7369683614       10.9414143859      -21.0571846549  W2        659             0.0000000000
      1978       660  TIP3      OH2           -21.9944283614       13.0440243859       -9.1286946549  W2        660             0.0000000000
      1979       660  TIP3      H1            -21.4542083614       12.8274243859       -8.3687746549  W2        660             0.0000000000
      1980       660  TIP3      H2            -22.4756283614       12.2386243859       -9.3184446549  W2        660             0.0000000000
      1981       661  TIP3      OH2           -17.3970883614       11.9634643859       -7.5082746549  W2        661             0.0000000000
      1982       661  TIP3      H1            -16.6293683614       11.5045443859       -7.1673546549  W2        661             0.0000000000
      1983       661  TIP3      H2            -17.4184683614       11.7374443859       -8.4381546549  W2        661             0.0000000000
      1984       662  TIP3      OH2           -13.3051283614       11.4715243859      -26.1330946549  W2        662             0.0000000000
      1985       662  TIP3      H1            -13.9490283614       10.8403843859      -25.8117246549  W2        662             0.0000000000
      1986       662  TIP3      H2            -12.5432983614       10.9403243859      -26.3647446549  W2        662             0.0000000000
      1987       663  TIP3      OH2           -10.8202183614       10.3435743859       -8.7791246549  W2        663             0.0000000000
      1988       663  TIP3      H1            -11.1712683614        9.4868743859       -8.5360846549  W2        663             0.0000000000
      1989       663  TIP3      H2            -10.0938983614       10.4862443859       -8.1722246549  W2        663             0.0000000000
      1990       664  TIP3      OH2            -8.7008383614       11.2885143859      -25.8992946549  W2        664             0.0000000000
      1991       664  TIP3      H1             -8.4177983614       10.4940343859      -25.4466046549  W2        664             0.0000000000
      1992       664  TIP3      H2             -7.9610483614       11.5216143859      -26.4601846549  W2        664             0.0000000000
      1993       665  TIP3      OH2           -22.0874783614        6.8544343859       -8.1742646549  W2        665             0.0000000000
      1994       665  TIP3      H1            -21.9434283614        5.9525043859       -8.4605946549  W2        665             0.0000000000
      1995       665  TIP3      H2            -22.8597383614        7.1406443859       -8.6620346549  W2        665             0.0000000000
      1996       666  TIP3      OH2           -17.7461083614        7.1980043859      -26.0418046549  W2        666             0.0000000000
      1997       666  TIP3      H1            -17.6816983614        6.4039643859      -25.5111646549  W2        666             0.0000000000
      1998       666  TIP3      H2            -17.0931883614        7.0792843859      -26.7316046549  W2        666             0.0000000000
      1999       667  TIP3      OH2           -15.4318683614        6.8242443859       -8.7416246549  W2        667             0.0000000000
      2000       667  TIP3      H1            -15.7604883614        7.0950543859       -9.5988846549  W2        667             0.0000000000
      2001       667  TIP3      H2            -15.2800483614        5.8832243859       -8.8291246549  W2        667             0.0000000000
      2002       668  TIP3      OH2           -12.3937683614        8.2451743859      -26.3060046549  W2        668             0.0000000000
      2003       668  TIP3      H1            -12.6623583614        8.4253843859      -25.4051146549  W2        668             0.0000000000
      2004       668  TIP3      H2            -12.6002083614        7.3197943859      -26.4374246549  W2        668             0.0000000000
      2005       669  TIP3      OH2            -9.6973483614        6.7399743859      -11.3583946549  W2        669             0.0000000000
      2006       669  TIP3      H1             -8.9518683614        7.3283443859      -11.4779946549  W2        669             0.0000000000
      2007       669  TIP3      H2            -10.4546683614        7.3219443859      -11.2950846549  W2        669             0.0000000000
      2008       670  TIP3      OH2           -21.2548283614        4.0547643859       -8.7543346549  W2        670             0.0000000000
      2009       670  TIP3      H1            -20.8467083614        3.1974243859       -8.8752746549  W2        670             0.0000000000
      2010       670  TIP3      H2            -21.5150683614        4.0688943859       -7.8333046549  W2        670             0.0000000000
      2011       671  TIP3      OH2           -16.5967283614        5.1706243859      -23.7360046549  W2        671             0.0000000000
      2012       671  TIP3      H1            -17.0565283614        4.6864543859      -23.0501546549  W2        671             0.0000000000
      2013       671  TIP3      H2            -16.3418583614        4.5021643859      -24.3719546549  W2        671             0.0000000000
      2014       672  TIP3      OH2           -17.3077983614        3.0633343859      -11.3800446549  W2        672             0.0000000000
      2015       672  TIP3      H1            -17.9261883614        3.7379943859      -11.0995746549  W2        672             0.0000000000
      2016       672  TIP3      H2            -16.9636783614        3.3847243859      -12.2134246549  W2        672             0.0000000000
      2017       673  TIP3      OH2           -15.5256883614        3.4138043859      -25.4736846549  W2        673             0.0000000000
      2018       673  TIP3      H1            -15.7061883614        3.2589243859      -26.4008546549  W2        673             0.0000000000
      2019       673  TIP3      H2            -14.5756383614        3.5216743859      -25.4288946549  W2        673             0.0000000000
      2020       674  TIP3      OH2           -12.2879783614        5.5348643859       -8.1025646549  W2        674             0.0000000000
      2021       674  TIP3      H1            -11.3348583614        5.6187743859       -8.1299646549  W2        674             0.0000000000
      2022       674  TIP3      H2            -12.4485183614        4.8230443859       -7.4830746549  W2        674             0.0000000000
      2023       675  TIP3      OH2            -6.1358583614        5.7682243859      -26.0278746549  W2        675             0.0000000000
      2024       675  TIP3      H1             -6.4093783614        5.3437743859      -26.8410446549  W2        675             0.0000000000
      2025       675  TIP3      H2             -6.0964483614        6.6996743859      -26.2448346549  W2        675             0.0000000000
      2026       676  TIP3      OH2           -16.9684283614        0.4184143859      -10.2977346549  W2        676             0.0000000000
      2027       676  TIP3      H1            -16.8183383614       -0.3104556141      -10.8997646549  W2        676             0.0000000000
      2028       676  TIP3      H2            -16.9661883614        1.1955843859      -10.8565146549  W2        676             0.0000000000
      2029       677  TIP3      OH2           -16.5558583614       -1.2120056141      -12.8049946549  W2        677             0.0000000000
      2030       677  TIP3      H1            -16.0201083614       -0.7603356141      -13.4570646549  W2        677             0.0000000000
      2031       677  TIP3      H2            -17.4078983614       -1.3200256141      -13.2275846549  W2        677             0.0000000000
      2032       678  TIP3      OH2           -14.9740183614        4.2276143859      -12.5654746549  W2        678             0.0000000000
      2033       678  TIP3      H1            -14.2235383614        4.0713643859      -13.1386946549  W2        678             0.0000000000
      2034       678  TIP3      H2            -15.3131883614        5.0792743859      -12.8409246549  W2        678             0.0000000000
      2035       679  TIP3      OH2           -10.5583983614        2.0427943859       -7.5369446549  W2        679             0.0000000000
      2036       679  TIP3      H1            -10.3662683614        1.1117343859       -7.6484946549  W2        679             0.0000000000
      2037       679  TIP3      H2             -9.7007683614        2.4677443859       -7.5474046549  W2        679             0.0000000000
      2038       680  TIP3      OH2            -9.2416783614        4.8313143859       -9.4596746549  W2        680             0.0000000000
      2039       680  TIP3      H1             -9.5231783614        5.5407743859      -10.0372946549  W2        680             0.0000000000
      2040       680  TIP3      H2             -8.2992483614        4.7586143859       -9.6105546549  W2        680             0.0000000000
      2041       681  TIP3      OH2           -18.4897983614        1.6167643859       -8.3861746549  W2        681             0.0000000000
      2042       681  TIP3      H1            -19.2568983614        1.0842443859       -8.5964146549  W2        681             0.0000000000
      2043       681  TIP3      H2            -17.8108983614        1.3068043859       -8.9855446549  W2        681             0.0000000000
      2044       682  TIP3      OH2           -15.7503083614       -3.7554356141      -12.3736346549  W2        682             0.0000000000
      2045       682  TIP3      H1            -15.8483483614       -2.8091156141      -12.4790146549  W2        682             0.0000000000
      2046       682  TIP3      H2            -16.4926883614       -4.1280556141      -12.8492846549  W2        682             0.0000000000
      2047       683  TIP3      OH2           -14.4862583614        0.5661043859       -8.8097946549  W2        683             0.0000000000
      2048       683  TIP3      H1            -14.7217183614        0.3467743859       -7.9083046549  W2        683             0.0000000000
      2049       683  TIP3      H2            -15.2695683614        0.3592243859       -9.3195446549  W2        683             0.0000000000
      2050       684  TIP3      OH2           -11.7705983614       -0.3065456141       -9.7344446549  W2        684             0.0000000000
      2051       684  TIP3      H1            -12.7180583614       -0.2745756141       -9.6021146549  W2        684             0.0000000000
      2052       684  TIP3      H2            -11.4579283614       -0.9318356141       -9.0806246549  W2        684             0.0000000000
      2053       685  TIP3      OH2           -10.1364483614       -1.6724356141       -7.7292546549  W2        685             0.0000000000
      2054       685  TIP3      H1            -10.2332683614       -2.6247056141       -7.7350646549  W2        685             0.0000000000
      2055       685  TIP3      H2            -10.4581383614       -1.4037556141       -6.8687046549  W2        685             0.0000000000
      2056       686  TIP3      OH2           -20.3095183614       -0.4628556141       -8.6817046549  W2        686             0.0000000000
      2057       686  TIP3      H1            -20.0977783614       -1.1692456141       -9.2919546549  W2        686             0.0000000000
      2058       686  TIP3      H2            -20.4207683614       -0.9002556141       -7.8375846549  W2        686             0.0000000000
      2059       687  TIP3      OH2           -15.5284983614       -4.4616956141       -9.7023546549  W2        687             0.0000000000
      2060       687  TIP3      H1            -14.8166583614       -5.1014756141       -9.7164446549  W2        687             0.0000000000
      2061       687  TIP3      H2            -15.6294583614       -4.1948656141      -10.6160446549  W2        687             0.0000000000
      2062       688  TIP3      OH2           -15.1747483614       -2.7788556141       -7.6487246549  W2        688             0.0000000000
      2063       688  TIP3      H1            -15.3065283614       -3.2544756141       -8.4688746549  W2        688             0.0000000000
      2064       688  TIP3      H2            -15.7740083614       -2.0344956141       -7.7040146549  W2        688             0.0000000000
      2065       689  TIP3      OH2           -15.6285183614       14.1041743859      -24.4723246549  W2        689             0.0000000000
      2066       689  TIP3      H1            -14.6954483614       14.2620443859      -24.3284846549  W2        689             0.0000000000
      2067       689  TIP3      H2            -15.8926383614       14.7794743859      -25.0971746549  W2        689             0.0000000000
      2068       690  TIP3      OH2           -22.0600283614        8.7405543859      -24.9895146549  W2        690             0.0000000000
      2069       690  TIP3      H1            -21.1461083614        8.8194443859      -24.7161246549  W2        690             0.0000000000
      2070       690  TIP3      H2            -22.0527183614        8.0535143859      -25.6559546549  W2        690             0.0000000000
      2071       691  TIP3      OH2           -23.4109683614       14.1334043859      -19.9121246549  W2        691             0.0000000000
      2072       691  TIP3      H1            -24.0582583614       13.6715743859      -20.4450046549  W2        691             0.0000000000
      2073       691  TIP3      H2            -23.0565083614       13.4617343859      -19.3295046549  W2        691             0.0000000000
      2074       692  TIP3      OH2           -22.5410483614       12.2141043859      -18.1075046549  W2        692             0.0000000000
      2075       692  TIP3      H1            -22.8753683614       11.3338343859      -17.9354846549  W2        692             0.0000000000
      2076       692  TIP3      H2            -22.3188083614       12.5596043859      -17.2429446549  W2        692             0.0000000000
      2077       693  TIP3      OH2            -4.9925683614       13.0237443859      -15.1270246549  W2        693             0.0000000000
      2078       693  TIP3      H1             -5.0138983614       13.2085843859      -14.1880846549  W2        693             0.0000000000
      2079       693  TIP3      H2             -4.3019483614       13.5921443859      -15.4678846549  W2        693             0.0000000000
      2080       694  TIP3      OH2            -5.4292783614       12.5908543859      -12.2051146549  W2        694             0.0000000000
      2081       694  TIP3      H1             -5.9164083614       11.8552643859      -12.5763746549  W2        694             0.0000000000
      2082       694  TIP3      H2             -4.8800083614       12.1972443859      -11.5271746549  W2        694             0.0000000000
      2083       695  TIP3      OH2            -6.9785483614        8.3806643859       -7.5670846549  W2        695             0.0000000000
      2084       695  TIP3      H1             -7.8444383614        8.2756343859       -7.1728546549  W2        695             0.0000000000
      2085       695  TIP3      H2             -6.6019583614        9.1389943859       -7.1206146549  W2        695             0.0000000000
      2086       696  TIP3      OH2            -5.6775783614        6.6370343859      -22.0528346549  W2        696             0.0000000000
      2087       696  TIP3      H1             -4.8274383614        7.0581243859      -21.9256746549  W2        696             0.0000000000
      2088       696  TIP3      H2             -5.6720683614        5.8970443859      -21.4456946549  W2        696             0.0000000000
      2089       697  TIP3      OH2            -5.2830183614        4.6907743859      -20.2292646549  W2        697             0.0000000000
      2090       697  TIP3      H1             -6.0095583614        4.2110343859      -19.8315046549  W2        697             0.0000000000
      2091       697  TIP3      H2             -4.7016883614        4.8962443859      -19.4971046549  W2        697             0.0000000000
      2092       698  TIP3      OH2            -5.5238983614        7.4755243859      -15.2815046549  W2        698             0.0000000000
      2093       698  TIP3      H1             -4.6904783614        7.0975243859      -15.5621446549  W2        698             0.0000000000
      2094       698  TIP3      H2             -5.4118683614        8.4186443859      -15.4005946549  W2        698             0.0000000000
      2095       699  TIP3      OH2            -7.0376683614       10.3532743859      -12.9746646549  W2        699             0.0000000000
      2096       699  TIP3      H1             -7.6851383614       10.6784243859      -12.3491446549  W2        699             0.0000000000
      2097       699  TIP3      H2             -7.5552683614        9.9130443859      -13.6488346549  W2        699             0.0000000000
      2098       700  TIP3      OH2            -5.0147083614        4.5916243859      -23.8381346549  W2        700             0.0000000000
      2099       700  TIP3      H1             -5.5365983614        4.9480343859      -24.5570446549  W2        700             0.0000000000
      2100       700  TIP3      H2             -5.0477883614        5.2664043859      -23.1600446549  W2        700             0.0000000000
      2101       701  TIP3      OH2            -6.6658083614        1.8311843859      -25.2874246549  W2        701             0.0000000000
      2102       701  TIP3      H1             -6.5693683614        2.4978843859      -25.9674546549  W2        701             0.0000000000
      2103       701  TIP3      H2             -6.8058483614        1.0158143859      -25.7688746549  W2        701             0.0000000000
      2104       702  TIP3      OH2            -7.4963383614        3.2114243859      -19.6663946549  W2        702             0.0000000000
      2105       702  TIP3      H1             -7.6464583614        2.2662843859      -19.6866146549  W2        702             0.0000000000
      2106       702  TIP3      H2             -7.8498883614        3.4925643859      -18.8224846549  W2        702             0.0000000000
      2107       703  TIP3      OH2           -22.4610983614        5.2896443859      -15.6560146549  W2        703             0.0000000000
      2108       703  TIP3      H1            -22.2768083614        5.2078143859      -16.5917246549  W2        703             0.0000000000
      2109       703  TIP3      H2            -21.6118083614        5.1653443859      -15.2323746549  W2        703             0.0000000000
      2110       704  TIP3      OH2            -6.6400483614        5.1817543859      -10.0275646549  W2        704             0.0000000000
      2111       704  TIP3      H1             -6.0573183614        4.4469843859       -9.8358446549  W2        704             0.0000000000
      2112       704  TIP3      H2             -6.0761183614        5.9537843859       -9.9809846549  W2        704             0.0000000000
      2113       705  TIP3      OH2            -5.1433383614        3.0843343859       -9.3430246549  W2        705             0.0000000000
      2114       705  TIP3      H1             -6.0066683614        2.7055443859       -9.5085546549  W2        705             0.0000000000
      2115       705  TIP3      H2             -4.5389683614        2.3458143859       -9.4174446549  W2        705             0.0000000000
      2116       706  TIP3      OH2            -7.4184283614       -0.7608356141      -26.1698746549  W2        706             0.0000000000
      2117       706  TIP3      H1             -6.8078483614       -1.1321556141      -25.5330546549  W2        706             0.0000000000
      2118       706  TIP3      H2             -8.2552783614       -1.1821456141      -25.9738746549  W2        706             0.0000000000
      2119       707  TIP3      OH2            -7.7858583614        0.7940043859      -21.2038846549  W2        707             0.0000000000
      2120       707  TIP3      H1             -7.5061483614       -0.1129556141      -21.0797146549  W2        707             0.0000000000
      2121       707  TIP3      H2             -7.0266883614        1.2281543859      -21.5929646549  W2        707             0.0000000000
      2122       708  TIP3      OH2            -7.1740283614        1.3757443859      -15.7679946549  W2        708             0.0000000000
      2123       708  TIP3      H1             -6.2412283614        1.5877343859      -15.8023946549  W2        708             0.0000000000
      2124       708  TIP3      H2             -7.4092783614        1.4769543859      -14.8456946549  W2        708             0.0000000000
      2125       709  TIP3      OH2            -7.1448383614        2.1122743859      -12.9920546549  W2        709             0.0000000000
      2126       709  TIP3      H1             -7.9877083614        2.3803143859      -12.6260746549  W2        709             0.0000000000
      2127       709  TIP3      H2             -6.7024083614        2.9344643859      -13.2029446549  W2        709             0.0000000000
      2128       710  TIP3      OH2           -22.8636183614        0.5601443859       -9.5151346549  W2        710             0.0000000000
      2129       710  TIP3      H1            -21.9441283614        0.4379743859       -9.2788246549  W2        710             0.0000000000
      2130       710  TIP3      H2            -23.3131683614       -0.1898856141       -9.1257846549  W2        710             0.0000000000
      2131       711  TIP3      OH2            -4.8616783614       -3.9077056141       -7.6385546549  W2        711             0.0000000000
      2132       711  TIP3      H1             -4.5119783614       -4.5613556141       -8.2440846549  W2        711             0.0000000000
      2133       711  TIP3      H2             -4.7147283614       -3.0702956141       -8.0782946549  W2        711             0.0000000000
      2134       712  TIP3      OH2            -7.1723783614       -1.9430656141      -21.1556846549  W2        712             0.0000000000
      2135       712  TIP3      H1             -6.9898783614       -2.3919156141      -20.3301846549  W2        712             0.0000000000
      2136       712  TIP3      H2             -7.7720883614       -2.5276256141      -21.6192246549  W2        712             0.0000000000
      2137       713  TIP3      OH2           -21.6423683614       -1.1276956141      -16.6238446549  W2        713             0.0000000000
      2138       713  TIP3      H1            -21.1972083614       -1.9194456141      -16.3218746549  W2        713             0.0000000000
      2139       713  TIP3      H2            -21.1760683614       -0.4111756141      -16.1932846549  W2        713             0.0000000000
      2140       714  TIP3      OH2           -23.3383383614        1.8716043859      -15.5548246549  W2        714             0.0000000000
      2141       714  TIP3      H1            -22.8463583614        1.6506543859      -16.3456246549  W2        714             0.0000000000
      2142       714  TIP3      H2            -22.9762483614        2.7119443859      -15.2738746549  W2        714             0.0000000000
      2143       715  TIP3      OH2            -5.3419583614       -1.7982456141       -9.2894246549  W2        715             0.0000000000
      2144       715  TIP3      H1             -6.2593883614       -1.5275356141       -9.3250746549  W2        715             0.0000000000
      2145       715  TIP3      H2             -5.2190183614       -2.3334056141      -10.0734546549  W2        715             0.0000000000
      2146       716  TIP3      OH2            -5.3057583614       -1.8752556141      -24.6276546549  W2        716             0.0000000000
      2147       716  TIP3      H1             -4.8934983614       -2.5966856141      -25.1028546549  W2        716             0.0000000000
      2148       716  TIP3      H2             -4.6241083614       -1.2057956141      -24.5692246549  W2        716             0.0000000000
      2149       717  TIP3      OH2           -23.0246883614       -1.8704856141      -21.5005846549  W2        717             0.0000000000
      2150       717  TIP3      H1            -23.9498483614       -1.6618256141      -21.6300346549  W2        717             0.0000000000
      2151       717  TIP3      H2            -22.5706983614       -1.3864056141      -22.1903546549  W2        717             0.0000000000
      2152       718  TIP3      OH2            -8.2539683614       13.1136843859      -19.5548446549  W2        718             0.0000000000
      2153       718  TIP3      H1             -7.6016783614       12.7658943859      -20.1629346549  W2        718             0.0000000000
      2154       718  TIP3      H2             -7.7435883614       13.6020043859      -18.9088746549  W2        718             0.0000000000
      2155       719  TIP3      OH2           -23.0611483614       -3.1325856141      -13.1563346549  W2        719             0.0000000000
      2156       719  TIP3      H1            -23.7260983614       -3.3785556141      -12.5132446549  W2        719             0.0000000000
      2157       719  TIP3      H2            -23.5040183614       -2.5105456141      -13.7335346549  W2        719             0.0000000000
      2158       720  TIP3      OH2           -20.8692183614       10.0428243859       -9.0117546549  W2        720             0.0000000000
      2159       720  TIP3      H1            -21.6899683614       10.2174743859       -9.4722846549  W2        720             0.0000000000
      2160       720  TIP3      H2            -21.1214383614        9.9692943859       -8.0913146549  W2        720             0.0000000000
      2161       721  TIP3      OH2           -17.9149283614       11.0169443859      -12.7533546549  W2        721             0.0000000000
      2162       721  TIP3      H1            -18.3398183614       11.8267943859      -13.0358946549  W2        721             0.0000000000
      2163       721  TIP3      H2            -17.0106483614       11.1023543859      -13.0553746549  W2        721             0.0000000000
      2164       722  TIP3      OH2           -13.6037883614       12.4159443859       -9.7939846549  W2        722             0.0000000000
      2165       722  TIP3      H1            -13.4190383614       12.0825543859       -8.9159546549  W2        722             0.0000000000
      2166       722  TIP3      H2            -12.7573383614       12.7258043859      -10.1160646549  W2        722             0.0000000000
      2167       723  TIP3      OH2           -11.2587483614       13.7018343859      -10.5498446549  W2        723             0.0000000000
      2168       723  TIP3      H1            -10.5818583614       13.0690643859      -10.7899246549  W2        723             0.0000000000
      2169       723  TIP3      H2            -10.9368683614       14.1028843859       -9.7425146549  W2        723             0.0000000000
      2170       724  TIP3      OH2            -6.3413683614       -3.7086156141      -11.4703446549  W2        724             0.0000000000
      2171       724  TIP3      H1             -7.1540183614       -3.3835856141      -11.8578746549  W2        724             0.0000000000
      2172       724  TIP3      H2             -6.1085183614       -4.4687656141      -12.0034346549  W2        724             0.0000000000
      2173       725  TIP3      OH2           -20.5132583614       14.2733343859      -12.7058246549  W2        725             0.0000000000
      2174       725  TIP3      H1            -21.2336183614       14.7134343859      -13.1570546549  W2        725             0.0000000000
      2175       725  TIP3      H2            -20.8788583614       14.0228043859      -11.8574246549  W2        725             0.0000000000
      2176       726  TIP3      OH2           -18.0459983614       13.8737243859      -13.6761046549  W2        726             0.0000000000
      2177       726  TIP3      H1            -18.9107783614       13.9455743859      -13.2720946549  W2        726             0.0000000000
      2178       726  TIP3      H2            -18.1010983614       14.4204543859      -14.4598546549  W2        726             0.0000000000
      2179       727  TIP3      OH2           -13.3354383614       13.7616143859      -14.5005046549  W2        727             0.0000000000
      2180       727  TIP3      H1            -13.7920383614       14.2905843859      -15.1546646549  W2        727             0.0000000000
      2181       727  TIP3      H2            -13.1726383614       14.3647543859      -13.7752746549  W2        727             0.0000000000
      2182       728  TIP3      OH2           -11.0078083614       12.6395743859      -13.5554746549  W2        728             0.0000000000
      2183       728  TIP3      H1            -11.9124383614       12.8045943859      -13.8212646549  W2        728             0.0000000000
      2184       728  TIP3      H2            -10.5789483614       13.4927943859      -13.6211346549  W2        728             0.0000000000
      2185       729  TIP3      OH2            -8.4036183614       14.2094843859      -13.2606946549  W2        729             0.0000000000
      2186       729  TIP3      H1             -8.5854183614       15.1253743859      -13.4712046549  W2        729             0.0000000000
      2187       729  TIP3      H2             -8.2268383614       13.7991943859      -14.1072346549  W2        729             0.0000000000
      2188       730  TIP3      OH2           -21.0984483614       12.8965843859      -15.7956446549  W2        730             0.0000000000
      2189       730  TIP3      H1            -21.1168483614       12.4710943859      -14.9384146549  W2        730             0.0000000000
      2190       730  TIP3      H2            -20.2936583614       12.5780843859      -16.2044246549  W2        730             0.0000000000
      2191       731  TIP3      OH2           -18.9571383614       11.6064543859      -17.1406546549  W2        731             0.0000000000
      2192       731  TIP3      H1            -19.1760683614       10.6901943859      -16.9710546549  W2        731             0.0000000000
      2193       731  TIP3      H2            -18.1329183614       11.7464943859      -16.6745146549  W2        731             0.0000000000
      2194       732  TIP3      OH2           -16.4198883614       12.0763843859      -16.2918546549  W2        732             0.0000000000
      2195       732  TIP3      H1            -16.2073183614       11.1882843859      -16.5787646549  W2        732             0.0000000000
      2196       732  TIP3      H2            -16.3553783614       12.0421543859      -15.3374546549  W2        732             0.0000000000
      2197       733  TIP3      OH2           -12.9115183614       -2.2595556141      -17.1475246549  W2        733             0.0000000000
      2198       733  TIP3      H1            -13.5858383614       -2.8889956141      -16.8919446549  W2        733             0.0000000000
      2199       733  TIP3      H2            -12.3475983614       -2.7436656141      -17.7507346549  W2        733             0.0000000000
      2200       734  TIP3      OH2            -7.7687983614       -4.1521556141      -17.0348146549  W2        734             0.0000000000
      2201       734  TIP3      H1             -7.1650383614       -3.6046156141      -17.5367146549  W2        734             0.0000000000
      2202       734  TIP3      H2             -8.6385983614       -3.8331156141      -17.2754046549  W2        734             0.0000000000
      2203       735  TIP3      OH2            -6.0417583614       -3.0132856141      -18.7017246549  W2        735             0.0000000000
      2204       735  TIP3      H1             -5.4300083614       -3.5277156141      -19.2283646549  W2        735             0.0000000000
      2205       735  TIP3      H2             -5.6594183614       -2.1360756141      -18.6782846549  W2        735             0.0000000000
      2206       736  TIP3      OH2           -20.5847683614       -3.6255256141      -19.3255346549  W2        736             0.0000000000
      2207       736  TIP3      H1            -21.3617883614       -3.8600356141      -19.8329446549  W2        736             0.0000000000
      2208       736  TIP3      H2            -20.0544083614       -4.4223156141      -19.3167346549  W2        736             0.0000000000
      2209       737  TIP3      OH2           -21.7484283614       -3.8277156141      -23.5219246549  W2        737             0.0000000000
      2210       737  TIP3      H1            -21.3093583614       -3.2166656141      -24.1135746549  W2        737             0.0000000000
      2211       737  TIP3      H2            -22.3821883614       -3.2893056141      -23.0479246549  W2        737             0.0000000000
      2212       738  TIP3      OH2           -16.0055083614       -3.6988156141      -19.5122246549  W2        738             0.0000000000
      2213       738  TIP3      H1            -15.1311683614       -3.3103856141      -19.5417946549  W2        738             0.0000000000
      2214       738  TIP3      H2            -16.1414283614       -3.9140356141      -18.5895046549  W2        738             0.0000000000
      2215       739  TIP3      OH2           -10.4486683614       -3.6688356141      -17.8630546549  W2        739             0.0000000000
      2216       739  TIP3      H1            -10.3725083614       -3.5736756141      -18.8124546549  W2        739             0.0000000000
      2217       739  TIP3      H2            -10.7237483614       -4.5765456141      -17.7341446549  W2        739             0.0000000000
      2218       740  TIP3      OH2            -9.0954083614       -3.6430556141      -22.1705546549  W2        740             0.0000000000
      2219       740  TIP3      H1             -9.7982983614       -3.0281356141      -22.3804146549  W2        740             0.0000000000
      2220       740  TIP3      H2             -9.5402683614       -4.4803856141      -22.0394646549  W2        740             0.0000000000
      2221       741  TIP3      OH2           -21.8474783614       12.1205043859      -22.6244146549  W2        741             0.0000000000
      2222       741  TIP3      H1            -22.5324883614       12.0823943859      -23.2919046549  W2        741             0.0000000000
      2223       741  TIP3      H2            -21.8437583614       13.0332643859      -22.3362046549  W2        741             0.0000000000
      2224       742  TIP3      OH2           -19.8875183614       -1.9115656141      -25.0795146549  W2        742             0.0000000000
      2225       742  TIP3      H1            -19.3961783614       -2.5413256141      -25.6069646549  W2        742             0.0000000000
      2226       742  TIP3      H2            -19.2638883614       -1.6156256141      -24.4163946549  W2        742             0.0000000000
      2227       743  TIP3      OH2           -14.8615083614       -1.6184156141      -22.6224646549  W2        743             0.0000000000
      2228       743  TIP3      H1            -14.6833783614       -2.2650956141      -21.9396046549  W2        743             0.0000000000
      2229       743  TIP3      H2            -14.9148883614       -0.7846456141      -22.1553546549  W2        743             0.0000000000
      2230       744  TIP3      OH2           -12.9831283614       13.3299943859      -24.2267946549  W2        744             0.0000000000
      2231       744  TIP3      H1            -12.1171083614       13.6967343859      -24.4049746549  W2        744             0.0000000000
      2232       744  TIP3      H2            -13.2298483614       12.8907943859      -25.0407146549  W2        744             0.0000000000
      2233       745  TIP3      OH2            -6.2741683614       12.8930243859      -21.5476846549  W2        745             0.0000000000
      2234       745  TIP3      H1             -6.4684583614       12.1452343859      -22.1127246549  W2        745             0.0000000000
      2235       745  TIP3      H2             -6.3131583614       13.6510343859      -22.1308946549  W2        745             0.0000000000
      2236       746  TIP3      OH2           -20.6269683614       -3.1113356141       -9.8079146549  W2        746             0.0000000000
      2237       746  TIP3      H1            -20.9931483614       -3.8770756141       -9.3654446549  W2        746             0.0000000000
      2238       746  TIP3      H2            -19.7141183614       -3.0823156141       -9.5214046549  W2        746             0.0000000000
      2239       747  TIP3      OH2           -18.6538883614       -3.7608956141       -8.2722046549  W2        747             0.0000000000
      2240       747  TIP3      H1            -17.7555283614       -4.0348756141       -8.4568646549  W2        747             0.0000000000
      2241       747  TIP3      H2            -19.0405783614       -4.5032956141       -7.8079446549  W2        747             0.0000000000
      2242       748  TIP3      OH2           -20.0293583614       13.0405843859      -25.5992046549  W2        748             0.0000000000
      2243       748  TIP3      H1            -20.2968983614       13.3268743859      -24.7258946549  W2        748             0.0000000000
      2244       748  TIP3      H2            -19.2580983614       12.4945043859      -25.4469546549  W2        748             0.0000000000
      2245       749  TIP3      OH2           -10.2326583614       -4.4283656141       -8.0899246549  W2        749             0.0000000000
      2246       749  TIP3      H1            -10.1559383614       -4.8542956141       -7.2361546549  W2        749             0.0000000000
      2247       749  TIP3      H2             -9.3389983614       -4.4148956141       -8.4325746549  W2        749             0.0000000000
      2248       750  TIP3      OH2            -7.0565483614       11.6442643859       -9.3975046549  W2        750             0.0000000000
      2249       750  TIP3      H1             -7.8383583614       11.4580643859       -9.9174446549  W2        750             0.0000000000
      2250       750  TIP3      H2             -7.1285583614       12.5736943859       -9.1802546549  W2        750             0.0000000000
      2251       751  TIP3      OH2             7.3494916386        5.5307043859      -19.3667846549  W2        751             0.0000000000
      2252       751  TIP3      H1              7.4386016386        6.4745243859      -19.4990746549  W2        751             0.0000000000
      2253       751  TIP3      H2              6.7112516386        5.2553443859      -20.0248446549  W2        751             0.0000000000
      2254       752  TIP3      OH2             6.2826216386        4.7857743859      -15.9479646549  W2        752             0.0000000000
      2255       752  TIP3      H1              6.2443716386        4.1394043859      -15.2430046549  W2        752             0.0000000000
      2256       752  TIP3      H2              5.9602716386        4.3192143859      -16.7190946549  W2        752             0.0000000000
      2257       753  TIP3      OH2            -1.3488783614        4.3999843859      -14.3549746549  W2        753             0.0000000000
      2258       753  TIP3      H1             -1.3076683614        3.7743143859      -13.6317346549  W2        753             0.0000000000
      2259       753  TIP3      H2             -0.6461083614        5.0238443859      -14.1729346549  W2        753             0.0000000000
      2260       754  TIP3      OH2             9.9886416386        7.7248143859      -17.6464546549  W2        754             0.0000000000
      2261       754  TIP3      H1              9.5479116386        7.0044143859      -17.1958946549  W2        754             0.0000000000
      2262       754  TIP3      H2              9.9756116386        8.4455343859      -17.0166846549  W2        754             0.0000000000
      2263       755  TIP3      OH2            -0.4255683614        8.8498743859      -15.8200646549  W2        755             0.0000000000
      2264       755  TIP3      H1             -0.7950483614        8.0479243859      -16.1896346549  W2        755             0.0000000000
      2265       755  TIP3      H2              0.5155416386        8.6813643859      -15.7737246549  W2        755             0.0000000000
      2266       756  TIP3      OH2            -3.8155183614        2.5101343859      -20.4271846549  W2        756             0.0000000000
      2267       756  TIP3      H1             -4.2631783614        3.3560043859      -20.4455346549  W2        756             0.0000000000
      2268       756  TIP3      H2             -4.3763983614        1.9305543859      -20.9426746549  W2        756             0.0000000000
      2269       757  TIP3      OH2            -3.1049083614        4.6720943859      -18.3013846549  W2        757             0.0000000000
      2270       757  TIP3      H1             -2.8915583614        3.9022543859      -17.7740846549  W2        757             0.0000000000
      2271       757  TIP3      H2             -2.3671483614        4.7617643859      -18.9046246549  W2        757             0.0000000000
      2272       758  TIP3      OH2             7.1001916386       12.8289843859      -17.4344146549  W2        758             0.0000000000
      2273       758  TIP3      H1              7.7198316386       12.1524543859      -17.7074946549  W2        758             0.0000000000
      2274       758  TIP3      H2              6.8919316386       12.6110643859      -16.5259246549  W2        758             0.0000000000
      2275       759  TIP3      OH2             4.6720616386        7.2179143859      -15.5418646549  W2        759             0.0000000000
      2276       759  TIP3      H1              4.9758516386        6.5320543859      -16.1364546549  W2        759             0.0000000000
      2277       759  TIP3      H2              5.3934616386        7.3367843859      -14.9240646549  W2        759             0.0000000000
      2278       760  TIP3      OH2            13.3350416386       -1.1805556141      -14.6812446549  W2        760             0.0000000000
      2279       760  TIP3      H1             13.3842616386       -0.5704356141      -13.9453346549  W2        760             0.0000000000
      2280       760  TIP3      H2             13.7605516386       -0.7194656141      -15.4041346549  W2        760             0.0000000000
      2281       761  TIP3      OH2             7.8127616386        1.6121543859      -15.2143846549  W2        761             0.0000000000
      2282       761  TIP3      H1              7.9553516386        0.6658543859      -15.1942246549  W2        761             0.0000000000
      2283       761  TIP3      H2              7.7066616386        1.8191343859      -16.1428946549  W2        761             0.0000000000
      2284       762  TIP3      OH2             0.9675916386       -0.2862056141      -17.9419046549  W2        762             0.0000000000
      2285       762  TIP3      H1              1.0107016386        0.5736443859      -18.3602746549  W2        762             0.0000000000
      2286       762  TIP3      H2              0.5100016386       -0.8387356141      -18.5755846549  W2        762             0.0000000000
      2287       763  TIP3      OH2             8.6898616386       -0.1556456141      -19.5410746549  W2        763             0.0000000000
      2288       763  TIP3      H1              9.3362916386       -0.4843256141      -18.9163146549  W2        763             0.0000000000
      2289       763  TIP3      H2              9.1998016386        0.3622543859      -20.1639346549  W2        763             0.0000000000
      2290       764  TIP3      OH2            -2.4122583614        2.1103743859      -17.1797646549  W2        764             0.0000000000
      2291       764  TIP3      H1             -1.7585983614        1.5605443859      -16.7477546549  W2        764             0.0000000000
      2292       764  TIP3      H2             -2.3883283614        1.8362743859      -18.0965646549  W2        764             0.0000000000
      2293       765  TIP3      OH2             2.7441916386        3.6605043859      -17.9646146549  W2        765             0.0000000000
      2294       765  TIP3      H1              3.3602916386        3.1340443859      -17.4552146549  W2        765             0.0000000000
      2295       765  TIP3      H2              2.1580716386        3.0203743859      -18.3682546549  W2        765             0.0000000000
      2296       766  TIP3      OH2            13.7265016386        0.2973643859      -12.4452646549  W2        766             0.0000000000
      2297       766  TIP3      H1             13.0379616386        0.9554343859      -12.5406046549  W2        766             0.0000000000
      2298       766  TIP3      H2             13.7419616386        0.1001543859      -11.5087246549  W2        766             0.0000000000
      2299       767  TIP3      OH2            -0.2222183614       -1.3683656141      -13.8678246549  W2        767             0.0000000000
      2300       767  TIP3      H1             -0.4410483614       -0.8383056141      -14.6342246549  W2        767             0.0000000000
      2301       767  TIP3      H2             -0.8901283614       -1.1418156141      -13.2206846549  W2        767             0.0000000000
      2302       768  TIP3      OH2             7.1467616386        8.1317443859      -20.3239146549  W2        768             0.0000000000
      2303       768  TIP3      H1              6.8512716386        7.8089743859      -21.1752246549  W2        768             0.0000000000
      2304       768  TIP3      H2              6.8225416386        9.0314143859      -20.2826546549  W2        768             0.0000000000
      2305       769  TIP3      OH2             2.3469216386        6.3072043859      -13.5804546549  W2        769             0.0000000000
      2306       769  TIP3      H1              1.6068316386        6.9053543859      -13.4769346549  W2        769             0.0000000000
      2307       769  TIP3      H2              3.0608716386        6.8611643859      -13.8960946549  W2        769             0.0000000000
      2308       770  TIP3      OH2            10.4537016386       -0.8647156141      -17.5604846549  W2        770             0.0000000000
      2309       770  TIP3      H1             10.2385016386       -1.6303756141      -17.0278846549  W2        770             0.0000000000
      2310       770  TIP3      H2             11.1094416386       -0.3922556141      -17.0476346549  W2        770             0.0000000000
      2311       771  TIP3      OH2            -0.6284883614        0.5238143859      -15.9156046549  W2        771             0.0000000000
      2312       771  TIP3      H1             -0.0148583614        1.1565743859      -15.5423646549  W2        771             0.0000000000
      2313       771  TIP3      H2             -0.1164183614        0.0513143859      -16.5719146549  W2        771             0.0000000000
      2314       772  TIP3      OH2             0.7543516386        8.2715043859      -12.7933046549  W2        772             0.0000000000
      2315       772  TIP3      H1              0.7491116386        9.1508543859      -13.1713746549  W2        772             0.0000000000
      2316       772  TIP3      H2             -0.0992383614        8.1879143859      -12.3683146549  W2        772             0.0000000000
      2317       773  TIP3      OH2            -3.1245583614        7.9422943859      -22.0113746549  W2        773             0.0000000000
      2318       773  TIP3      H1             -3.3964683614        8.1713943859      -22.9000846549  W2        773             0.0000000000
      2319       773  TIP3      H2             -3.0789883614        8.7801743859      -21.5508446549  W2        773             0.0000000000
      2320       774  TIP3      OH2            10.5004116386        9.5638843859      -15.2985246549  W2        774             0.0000000000
      2321       774  TIP3      H1              9.5587816386        9.6222743859      -15.1368346549  W2        774             0.0000000000
      2322       774  TIP3      H2             10.7770216386       10.4699343859      -15.4355546549  W2        774             0.0000000000
      2323       775  TIP3      OH2            10.8011116386       -2.1495856141      -13.8811346549  W2        775             0.0000000000
      2324       775  TIP3      H1             10.0650316386       -1.5388756141      -13.9190046549  W2        775             0.0000000000
      2325       775  TIP3      H2             11.4845116386       -1.7346856141      -14.4074946549  W2        775             0.0000000000
      2326       776  TIP3      OH2             3.8042516386       -4.0628556141      -16.4153346549  W2        776             0.0000000000
      2327       776  TIP3      H1              3.6866716386       -5.0112556141      -16.4695046549  W2        776             0.0000000000
      2328       776  TIP3      H2              2.9492616386       -3.7302456141      -16.1422246549  W2        776             0.0000000000
      2329       777  TIP3      OH2             8.7525316386       11.3452343859      -18.6733646549  W2        777             0.0000000000
      2330       777  TIP3      H1              9.1777616386       10.6380243859      -19.1584046549  W2        777             0.0000000000
      2331       777  TIP3      H2              9.0695316386       12.1465043859      -19.0901446549  W2        777             0.0000000000
      2332       778  TIP3      OH2             9.9121816386        9.2460843859      -20.1647046549  W2        778             0.0000000000
      2333       778  TIP3      H1              9.6546616386        8.5560943859      -20.7761146549  W2        778             0.0000000000
      2334       778  TIP3      H2              9.9832616386        8.8032043859      -19.3191146549  W2        778             0.0000000000
      2335       779  TIP3      OH2            11.5982016386        7.8127543859      -11.6873546549  W2        779             0.0000000000
      2336       779  TIP3      H1             11.7378316386        7.2210043859      -12.4266546549  W2        779             0.0000000000
      2337       779  TIP3      H2             11.7654816386        8.6853443859      -12.0434746549  W2        779             0.0000000000
      2338       780  TIP3      OH2             6.0707416386        4.7747043859      -21.9147546549  W2        780             0.0000000000
      2339       780  TIP3      H1              5.3592916386        5.3096743859      -22.2667046549  W2        780             0.0000000000
      2340       780  TIP3      H2              6.7617016386        4.8299143859      -22.5748646549  W2        780             0.0000000000
      2341       781  TIP3      OH2             6.1246616386        3.2321343859      -24.8762546549  W2        781             0.0000000000
      2342       781  TIP3      H1              6.8256516386        3.2548243859      -24.2248546549  W2        781             0.0000000000
      2343       781  TIP3      H2              6.4269516386        2.6041043859      -25.5323246549  W2        781             0.0000000000
      2344       782  TIP3      OH2            13.4401316386        4.1525543859      -13.6213146549  W2        782             0.0000000000
      2345       782  TIP3      H1             12.7875416386        4.8471143859      -13.5322246549  W2        782             0.0000000000
      2346       782  TIP3      H2             13.9051616386        4.3626443859      -14.4311546549  W2        782             0.0000000000
      2347       783  TIP3      OH2             9.4765116386        4.9840343859      -20.9631646549  W2        783             0.0000000000
      2348       783  TIP3      H1              8.7446116386        5.2124043859      -20.3901046549  W2        783             0.0000000000
      2349       783  TIP3      H2              9.9237316386        4.2703043859      -20.5084146549  W2        783             0.0000000000
      2350       784  TIP3      OH2             9.3738616386        3.1582943859      -11.8954646549  W2        784             0.0000000000
      2351       784  TIP3      H1              9.4537716386        3.9217343859      -11.3236146549  W2        784             0.0000000000
      2352       784  TIP3      H2              8.7726316386        3.4375343859      -12.5859546549  W2        784             0.0000000000
      2353       785  TIP3      OH2             1.1218816386        5.6146543859      -19.0806646549  W2        785             0.0000000000
      2354       785  TIP3      H1              0.7914016386        5.2439943859      -19.8989646549  W2        785             0.0000000000
      2355       785  TIP3      H2              1.7102916386        4.9440543859      -18.7338346549  W2        785             0.0000000000
      2356       786  TIP3      OH2             2.4886316386        9.0427143859      -16.3994446549  W2        786             0.0000000000
      2357       786  TIP3      H1              2.3937616386        8.4640243859      -17.1559846549  W2        786             0.0000000000
      2358       786  TIP3      H2              3.2179916386        8.6712843859      -15.9031646549  W2        786             0.0000000000
      2359       787  TIP3      OH2             1.4884316386        4.3832143859      -15.4471646549  W2        787             0.0000000000
      2360       787  TIP3      H1              2.0536816386        4.5046343859      -16.2100446549  W2        787             0.0000000000
      2361       787  TIP3      H2              1.8073216386        5.0207143859      -14.8083146549  W2        787             0.0000000000
      2362       788  TIP3      OH2             7.7976516386        9.8864043859      -14.7131146549  W2        788             0.0000000000
      2363       788  TIP3      H1              7.5573116386       10.5487143859      -14.0651946549  W2        788             0.0000000000
      2364       788  TIP3      H2              7.5994716386        9.0519243859      -14.2881546549  W2        788             0.0000000000
      2365       789  TIP3      OH2             2.3685016386        8.7824843859      -10.7299746549  W2        789             0.0000000000
      2366       789  TIP3      H1              2.0572516386        9.5648043859      -10.2746546549  W2        789             0.0000000000
      2367       789  TIP3      H2              1.7185216386        8.6293943859      -11.4157746549  W2        789             0.0000000000
      2368       790  TIP3      OH2             8.3474616386        4.1463243859      -23.2780446549  W2        790             0.0000000000
      2369       790  TIP3      H1              8.9270116386        4.2963543859      -22.5311546549  W2        790             0.0000000000
      2370       790  TIP3      H2              8.7614616386        4.6170643859      -24.0014046549  W2        790             0.0000000000
      2371       791  TIP3      OH2            -0.7115083614        4.9805943859      -11.5014046549  W2        791             0.0000000000
      2372       791  TIP3      H1             -0.6411883614        5.6312743859      -10.8029046549  W2        791             0.0000000000
      2373       791  TIP3      H2             -1.6022883614        5.0833443859      -11.8363146549  W2        791             0.0000000000
      2374       792  TIP3      OH2             6.0739516386       10.8831743859      -19.8427346549  W2        792             0.0000000000
      2375       792  TIP3      H1              6.5477116386       11.1788043859      -19.0653146549  W2        792             0.0000000000
      2376       792  TIP3      H2              5.5108816386       11.6213343859      -20.0757746549  W2        792             0.0000000000
      2377       793  TIP3      OH2             0.6080916386       10.8539843859       -9.9665946549  W2        793             0.0000000000
      2378       793  TIP3      H1              0.6156216386       10.7179543859      -10.9140446549  W2        793             0.0000000000
      2379       793  TIP3      H2             -0.3078683614       10.7367943859       -9.7145946549  W2        793             0.0000000000
      2380       794  TIP3      OH2            12.0463016386       -4.1036356141      -23.4650746549  W2        794             0.0000000000
      2381       794  TIP3      H1             11.1463716386       -3.9647356141      -23.1700146549  W2        794             0.0000000000
      2382       794  TIP3      H2             12.2981416386       -3.2721756141      -23.8669046549  W2        794             0.0000000000
      2383       795  TIP3      OH2             0.1121516386        4.6840843859      -21.4913846549  W2        795             0.0000000000
      2384       795  TIP3      H1             -0.1797183614        5.4522543859      -21.9822546549  W2        795             0.0000000000
      2385       795  TIP3      H2             -0.5623283614        4.0247043859      -21.6542446549  W2        795             0.0000000000
      2386       796  TIP3      OH2            13.2354416386       10.2626043859      -25.0886846549  W2        796             0.0000000000
      2387       796  TIP3      H1             13.3087916386       11.2016243859      -24.9181546549  W2        796             0.0000000000
      2388       796  TIP3      H2             14.1409516386        9.9574643859      -25.1449546549  W2        796             0.0000000000
      2389       797  TIP3      OH2            -3.7948383614        7.0470043859      -12.6764046549  W2        797             0.0000000000
      2390       797  TIP3      H1             -4.2959983614        7.0189443859      -13.4914346549  W2        797             0.0000000000
      2391       797  TIP3      H2             -3.7894683614        6.1413243859      -12.3666746549  W2        797             0.0000000000
      2392       798  TIP3      OH2            -4.0445683614        9.8273843859      -15.7923846549  W2        798             0.0000000000
      2393       798  TIP3      H1             -3.0985083614        9.6830843859      -15.8114346549  W2        798             0.0000000000
      2394       798  TIP3      H2             -4.1569383614       10.6116643859      -15.2552646549  W2        798             0.0000000000
      2395       799  TIP3      OH2            14.1532816386       10.4933543859      -10.1100146549  W2        799             0.0000000000
      2396       799  TIP3      H1             14.1039616386        9.5381643859      -10.1472546549  W2        799             0.0000000000
      2397       799  TIP3      H2             13.3265116386       10.7608843859       -9.7086346549  W2        799             0.0000000000
      2398       800  TIP3      OH2             5.1316816386       10.0672743859      -11.2338746549  W2        800             0.0000000000
      2399       800  TIP3      H1              5.2191416386       10.8937343859      -10.7589646549  W2        800             0.0000000000
      2400       800  TIP3      H2              4.2681916386        9.7376543859      -10.9849446549  W2        800             0.0000000000
      2401       801  TIP3      OH2             5.5462616386       13.8396443859      -21.4278146549  W2        801             0.0000000000
      2402       801  TIP3      H1              5.4708616386       13.7183643859      -22.3742946549  W2        801             0.0000000000
      2403       801  TIP3      H2              5.5791316386       14.7889143859      -21.3093546549  W2        801             0.0000000000
      2404       802  TIP3      OH2            -0.8003583614       12.6283443859      -19.6469146549  W2        802             0.0000000000
      2405       802  TIP3      H1             -0.6483183614       12.2803843859      -18.7682646549  W2        802             0.0000000000
      2406       802  TIP3      H2             -1.6513183614       12.2720743859      -19.9021946549  W2        802             0.0000000000
      2407       803  TIP3      OH2             8.6478616386       12.9936643859      -24.4255746549  W2        803             0.0000000000
      2408       803  TIP3      H1              9.0227016386       12.2492743859      -24.8963146549  W2        803             0.0000000000
      2409       803  TIP3      H2              8.6522316386       12.7237243859      -23.5072446549  W2        803             0.0000000000
      2410       804  TIP3      OH2             8.3166716386       12.9193743859      -21.6763546549  W2        804             0.0000000000
      2411       804  TIP3      H1              7.3816516386       13.0195643859      -21.4976546549  W2        804             0.0000000000
      2412       804  TIP3      H2              8.5968616386       12.2099743859      -21.0980346549  W2        804             0.0000000000
      2413       805  TIP3      OH2            11.3052616386        1.9866043859       -9.6297946549  W2        805             0.0000000000
      2414       805  TIP3      H1             10.8979416386        2.4671643859      -10.3504646549  W2        805             0.0000000000
      2415       805  TIP3      H2             11.3458316386        1.0812043859       -9.9377146549  W2        805             0.0000000000
      2416       806  TIP3      OH2            -1.5457883614        8.3705443859      -11.6331246549  W2        806             0.0000000000
      2417       806  TIP3      H1             -1.3296583614        8.0091043859      -10.7735446549  W2        806             0.0000000000
      2418       806  TIP3      H2             -2.4013183614        7.9959243859      -11.8427746549  W2        806             0.0000000000
      2419       807  TIP3      OH2             1.0730116386       -3.1594056141      -15.6377046549  W2        807             0.0000000000
      2420       807  TIP3      H1              0.2113816386       -3.2465856141      -16.0454146549  W2        807             0.0000000000
      2421       807  TIP3      H2              1.0505816386       -2.3033956141      -15.2099446549  W2        807             0.0000000000
      2422       808  TIP3      OH2             5.7357916386       -3.4373656141      -12.2630046549  W2        808             0.0000000000
      2423       808  TIP3      H1              6.1561016386       -3.8526556141      -11.5099446549  W2        808             0.0000000000
      2424       808  TIP3      H2              4.8027516386       -3.6160356141      -12.1458046549  W2        808             0.0000000000
      2425       809  TIP3      OH2             9.0622816386        0.3181543859      -11.4095546549  W2        809             0.0000000000
      2426       809  TIP3      H1              8.5482316386        0.1923743859      -10.6119546549  W2        809             0.0000000000
      2427       809  TIP3      H2              8.9067516386        1.2304643859      -11.6539346549  W2        809             0.0000000000
      2428       810  TIP3      OH2             9.8247716386        5.1791543859      -25.6482546549  W2        810             0.0000000000
      2429       810  TIP3      H1              9.8668516386        4.9565443859      -26.5782546549  W2        810             0.0000000000
      2430       810  TIP3      H2             10.6739816386        5.5778643859      -25.4582646549  W2        810             0.0000000000
      2431       811  TIP3      OH2             5.3975216386       -0.9450256141      -24.9779246549  W2        811             0.0000000000
      2432       811  TIP3      H1              5.1440016386       -0.9258656141      -24.0551146549  W2        811             0.0000000000
      2433       811  TIP3      H2              5.1407316386       -1.8164856141      -25.2793046549  W2        811             0.0000000000
      2434       812  TIP3      OH2             1.1640216386        1.8060443859      -14.5426846549  W2        812             0.0000000000
      2435       812  TIP3      H1              0.5222316386        1.7657743859      -13.8336746549  W2        812             0.0000000000
      2436       812  TIP3      H2              1.2012216386        2.7325143859      -14.7803846549  W2        812             0.0000000000
      2437       813  TIP3      OH2             1.1609316386        2.0270543859      -19.6306846549  W2        813             0.0000000000
      2438       813  TIP3      H1              0.2682216386        1.6866643859      -19.6893046549  W2        813             0.0000000000
      2439       813  TIP3      H2              1.6115916386        1.6501443859      -20.3863646549  W2        813             0.0000000000
      2440       814  TIP3      OH2             6.6964816386        2.4430843859      -20.8136046549  W2        814             0.0000000000
      2441       814  TIP3      H1              6.2875116386        3.2579443859      -21.1051246549  W2        814             0.0000000000
      2442       814  TIP3      H2              7.4171016386        2.3030943859      -21.4278946549  W2        814             0.0000000000
      2443       815  TIP3      OH2             5.7986416386        2.6187243859       -9.3255346549  W2        815             0.0000000000
      2444       815  TIP3      H1              5.2360216386        1.9138843859       -9.0047546549  W2        815             0.0000000000
      2445       815  TIP3      H2              6.6249816386        2.4979143859       -8.8577746549  W2        815             0.0000000000
      2446       816  TIP3      OH2             7.7012516386        1.8891243859      -17.9996346549  W2        816             0.0000000000
      2447       816  TIP3      H1              7.5057016386        2.4948043859      -18.7145746549  W2        816             0.0000000000
      2448       816  TIP3      H2              7.8825116386        1.0556443859      -18.4340046549  W2        816             0.0000000000
      2449       817  TIP3      OH2            -1.0859283614        2.1263943859      -12.6754846549  W2        817             0.0000000000
      2450       817  TIP3      H1             -1.1239883614        2.5265543859      -11.8067746549  W2        817             0.0000000000
      2451       817  TIP3      H2             -1.5768183614        1.3096343859      -12.5851946549  W2        817             0.0000000000
      2452       818  TIP3      OH2             2.2798116386       -0.4993756141      -25.8768846549  W2        818             0.0000000000
      2453       818  TIP3      H1              1.8488816386       -0.9443656141      -25.1471446549  W2        818             0.0000000000
      2454       818  TIP3      H2              1.5616816386       -0.1277456141      -26.3891346549  W2        818             0.0000000000
      2455       819  TIP3      OH2            -4.4778483614       -0.7574256141      -18.8250146549  W2        819             0.0000000000
      2456       819  TIP3      H1             -3.8470783614       -0.7862156141      -18.1056246549  W2        819             0.0000000000
      2457       819  TIP3      H2             -4.0284183614       -1.1825556141      -19.5554246549  W2        819             0.0000000000
      2458       820  TIP3      OH2            -3.2036383614       -0.0112256141      -23.4009746549  W2        820             0.0000000000
      2459       820  TIP3      H1             -2.7294683614        0.5797643859      -23.9858846549  W2        820             0.0000000000
      2460       820  TIP3      H2             -3.9209983614        0.5190643859      -23.0539646549  W2        820             0.0000000000
      2461       821  TIP3      OH2             6.9651716386        3.5272543859      -13.3283946549  W2        821             0.0000000000
      2462       821  TIP3      H1              7.2886516386        2.8962243859      -13.9713446549  W2        821             0.0000000000
      2463       821  TIP3      H2              6.5251016386        2.9924743859      -12.6676546549  W2        821             0.0000000000
      2464       822  TIP3      OH2             3.7424616386       -0.5451956141      -18.5442746549  W2        822             0.0000000000
      2465       822  TIP3      H1              2.8315716386       -0.4885156141      -18.2556746549  W2        822             0.0000000000
      2466       822  TIP3      H2              4.2477516386       -0.6056456141      -17.7335546549  W2        822             0.0000000000
      2467       823  TIP3      OH2            -1.4291983614        1.0834343859      -19.7175146549  W2        823             0.0000000000
      2468       823  TIP3      H1             -2.3183983614        1.1829843859      -20.0575546549  W2        823             0.0000000000
      2469       823  TIP3      H2             -1.1327083614        0.2417343859      -20.0637246549  W2        823             0.0000000000
      2470       824  TIP3      OH2             2.2239816386        1.0836943859      -22.0610546549  W2        824             0.0000000000
      2471       824  TIP3      H1              3.1555316386        1.2126943859      -21.8827446549  W2        824             0.0000000000
      2472       824  TIP3      H2              2.0090116386        1.7531243859      -22.7105846549  W2        824             0.0000000000
      2473       825  TIP3      OH2             8.1476516386       -1.3105656141      -15.2800946549  W2        825             0.0000000000
      2474       825  TIP3      H1              7.4708116386       -1.1792556141      -14.6161246549  W2        825             0.0000000000
      2475       825  TIP3      H2              7.6621416386       -1.4656156141      -16.0903246549  W2        825             0.0000000000
      2476       826  TIP3      OH2             0.8980016386        2.2779143859      -24.4944446549  W2        826             0.0000000000
      2477       826  TIP3      H1              0.3555116386        1.8982943859      -25.1856846549  W2        826             0.0000000000
      2478       826  TIP3      H2              1.7314916386        2.4723843859      -24.9230346549  W2        826             0.0000000000
      2479       827  TIP3      OH2            11.4351616386       14.3609743859       -9.0033346549  W2        827             0.0000000000
      2480       827  TIP3      H1             11.6350316386       14.7851643859       -9.8378046549  W2        827             0.0000000000
      2481       827  TIP3      H2             12.0905316386       14.7047943859       -8.3962946549  W2        827             0.0000000000
      2482       828  TIP3      OH2            -0.9668583614        6.8351043859       -9.3952846549  W2        828             0.0000000000
      2483       828  TIP3      H1             -0.2346183614        7.0896943859       -8.8338346549  W2        828             0.0000000000
      2484       828  TIP3      H2             -1.7469883614        7.0396443859       -8.8797446549  W2        828             0.0000000000
      2485       829  TIP3      OH2             5.0624316386        2.2421043859      -16.6573146549  W2        829             0.0000000000
      2486       829  TIP3      H1              5.6267716386        1.6957643859      -17.2043546549  W2        829             0.0000000000
      2487       829  TIP3      H2              4.9147716386        1.7202943859      -15.8685546549  W2        829             0.0000000000
      2488       830  TIP3      OH2             0.0644016386       -1.6212856141      -20.2388346549  W2        830             0.0000000000
      2489       830  TIP3      H1             -0.2526483614       -2.5237556141      -20.2742946549  W2        830             0.0000000000
      2490       830  TIP3      H2              0.8458116386       -1.6195456141      -20.7916746549  W2        830             0.0000000000
      2491       831  TIP3      OH2             3.6890216386        0.6307143859      -14.2432746549  W2        831             0.0000000000
      2492       831  TIP3      H1              2.8535516386        1.0846643859      -14.1330346549  W2        831             0.0000000000
      2493       831  TIP3      H2              4.2130816386        0.9065643859      -13.4912846549  W2        831             0.0000000000
      2494       832  TIP3      OH2             4.2332816386        6.8434843859      -22.5586346549  W2        832             0.0000000000
      2495       832  TIP3      H1              3.4883816386        6.3360143859      -22.8808446549  W2        832             0.0000000000
      2496       832  TIP3      H2              4.0990016386        6.8922843859      -21.6121546549  W2        832             0.0000000000
      2497       833  TIP3      OH2            11.3831716386        5.9763043859      -13.7718746549  W2        833             0.0000000000
      2498       833  TIP3      H1             12.0250516386        6.4329343859      -14.3156546549  W2        833             0.0000000000
      2499       833  TIP3      H2             10.5528616386        6.0895443859      -14.2344646549  W2        833             0.0000000000
      2500       834  TIP3      OH2             8.1309616386       -0.3425256141      -24.3593746549  W2        834             0.0000000000
      2501       834  TIP3      H1              7.1923816386       -0.2309656141      -24.5104946549  W2        834             0.0000000000
      2502       834  TIP3      H2              8.4281716386        0.5141643859      -24.0528046549  W2        834             0.0000000000
      2503       835  TIP3      OH2             5.7524916386        7.0278143859      -11.3217246549  W2        835             0.0000000000
      2504       835  TIP3      H1              5.4071016386        6.6460543859      -10.5147646549  W2        835             0.0000000000
      2505       835  TIP3      H2              5.5525016386        7.9611743859      -11.2504346549  W2        835             0.0000000000
      2506       836  TIP3      OH2             8.8493116386        1.5247443859      -22.6986346549  W2        836             0.0000000000
      2507       836  TIP3      H1              9.7412116386        1.3872443859      -22.3795146549  W2        836             0.0000000000
      2508       836  TIP3      H2              8.9056716386        2.3153543859      -23.2352846549  W2        836             0.0000000000
      2509       837  TIP3      OH2            -0.6418883614        6.1384843859      -16.7888446549  W2        837             0.0000000000
      2510       837  TIP3      H1              0.1028316386        6.1360543859      -17.3901946549  W2        837             0.0000000000
      2511       837  TIP3      H2             -0.5642283614        5.3148643859      -16.3073346549  W2        837             0.0000000000
      2512       838  TIP3      OH2             6.3586916386        8.3019143859      -23.5331746549  W2        838             0.0000000000
      2513       838  TIP3      H1              6.0635316386        9.1287043859      -23.1516946549  W2        838             0.0000000000
      2514       838  TIP3      H2              5.6556916386        7.6826043859      -23.3370346549  W2        838             0.0000000000
      2515       839  TIP3      OH2            -3.6339183614        4.5991743859      -11.4739946549  W2        839             0.0000000000
      2516       839  TIP3      H1             -3.4110583614        4.1811343859      -10.6422446549  W2        839             0.0000000000
      2517       839  TIP3      H2             -4.2359083614        3.9866743859      -11.8967146549  W2        839             0.0000000000
      2518       840  TIP3      OH2             3.3825716386        4.1161643859       -9.2610246549  W2        840             0.0000000000
      2519       840  TIP3      H1              3.0866516386        3.9504643859      -10.1561146549  W2        840             0.0000000000
      2520       840  TIP3      H2              4.3140916386        3.8961943859       -9.2716346549  W2        840             0.0000000000
      2521       841  TIP3      OH2             8.0028516386        9.4893643859      -11.3712246549  W2        841             0.0000000000
      2522       841  TIP3      H1              7.1022816386        9.6726243859      -11.6388346549  W2        841             0.0000000000
      2523       841  TIP3      H2              8.0369616386        9.7482943859      -10.4503446549  W2        841             0.0000000000
      2524       842  TIP3      OH2            13.7341816386        1.7341543859      -23.0039646549  W2        842             0.0000000000
      2525       842  TIP3      H1             13.1798116386        1.3379543859      -23.6762146549  W2        842             0.0000000000
      2526       842  TIP3      H2             13.8345416386        2.6446743859      -23.2816346549  W2        842             0.0000000000
      2527       843  TIP3      OH2            13.6973816386        7.5343243859      -10.1668146549  W2        843             0.0000000000
      2528       843  TIP3      H1             12.8462316386        7.7727043859      -10.5341746549  W2        843             0.0000000000
      2529       843  TIP3      H2             14.2877216386        7.5176443859      -10.9201046549  W2        843             0.0000000000
      2530       844  TIP3      OH2            12.0293516386       10.5201943859      -22.5387546549  W2        844             0.0000000000
      2531       844  TIP3      H1             11.6564616386        9.6945743859      -22.2296946549  W2        844             0.0000000000
      2532       844  TIP3      H2             12.3067016386       10.3371343859      -23.4364146549  W2        844             0.0000000000
      2533       845  TIP3      OH2             9.1897416386        5.3281443859      -15.5175646549  W2        845             0.0000000000
      2534       845  TIP3      H1              8.2614316386        5.0963343859      -15.5446346549  W2        845             0.0000000000
      2535       845  TIP3      H2              9.6408516386        4.5511243859      -15.8476846549  W2        845             0.0000000000
      2536       846  TIP3      OH2             1.7330516386        9.6563043859      -19.3846946549  W2        846             0.0000000000
      2537       846  TIP3      H1              2.2602716386       10.4297443859      -19.5848146549  W2        846             0.0000000000
      2538       846  TIP3      H2              0.8529016386        9.8812243859      -19.6862946549  W2        846             0.0000000000
      2539       847  TIP3      OH2            -2.5121783614        4.5187143859      -24.7974546549  W2        847             0.0000000000
      2540       847  TIP3      H1             -1.8961883614        5.1454343859      -24.4179746549  W2        847             0.0000000000
      2541       847  TIP3      H2             -3.3739183614        4.8346943859      -24.5258046549  W2        847             0.0000000000
      2542       848  TIP3      OH2             3.1602816386        7.3192943859      -19.8082646549  W2        848             0.0000000000
      2543       848  TIP3      H1              2.9192816386        8.2447343859      -19.7667346549  W2        848             0.0000000000
      2544       848  TIP3      H2              2.4196416386        6.8604243859      -19.4118746549  W2        848             0.0000000000
      2545       849  TIP3      OH2             3.6749416386       11.4686543859      -13.4931546549  W2        849             0.0000000000
      2546       849  TIP3      H1              4.0374116386       12.3232143859      -13.7267146549  W2        849             0.0000000000
      2547       849  TIP3      H2              4.2064616386       11.1768143859      -12.7525246549  W2        849             0.0000000000
      2548       850  TIP3      OH2             1.8433616386       12.3410543859      -20.2630446549  W2        850             0.0000000000
      2549       850  TIP3      H1              0.8934116386       12.4467943859      -20.2117146549  W2        850             0.0000000000
      2550       850  TIP3      H2              2.1951716386       13.1617943859      -19.9182946549  W2        850             0.0000000000
      2551       851  TIP3      OH2             7.2190216386        7.5677243859      -13.7925946549  W2        851             0.0000000000
      2552       851  TIP3      H1              6.7931516386        7.3398943859      -12.9661946549  W2        851             0.0000000000
      2553       851  TIP3      H2              7.7996016386        6.8289043859      -13.9750646549  W2        851             0.0000000000
      2554       852  TIP3      OH2             9.4219116386        8.4967743859      -24.7186946549  W2        852             0.0000000000
      2555       852  TIP3      H1              9.7752216386        8.1167543859      -23.9143446549  W2        852             0.0000000000
      2556       852  TIP3      H2              8.4732616386        8.4032543859      -24.6317646549  W2        852             0.0000000000
      2557       853  TIP3      OH2             9.8774416386       12.1196743859      -11.3231146549  W2        853             0.0000000000
      2558       853  TIP3      H1              9.2757616386       11.5639643859      -11.8184846549  W2        853             0.0000000000
      2559       853  TIP3      H2             10.1588116386       12.7866543859      -11.9493746549  W2        853             0.0000000000
      2560       854  TIP3      OH2            13.9253516386       12.9760243859      -24.5176746549  W2        854             0.0000000000
      2561       854  TIP3      H1             14.6691416386       13.5620743859      -24.6575146549  W2        854             0.0000000000
      2562       854  TIP3      H2             13.2311616386       13.5446043859      -24.1844346549  W2        854             0.0000000000
      2563       855  TIP3      OH2            -1.9999683614       -0.6475556141      -11.9158546549  W2        855             0.0000000000
      2564       855  TIP3      H1             -2.8927383614       -0.3090156141      -11.9834546549  W2        855             0.0000000000
      2565       855  TIP3      H2             -2.0986883614       -1.5029456141      -11.4977746549  W2        855             0.0000000000
      2566       856  TIP3      OH2            10.2878416386        7.1689743859      -22.4919046549  W2        856             0.0000000000
      2567       856  TIP3      H1             10.0106016386        6.4409043859      -21.9357946549  W2        856             0.0000000000
      2568       856  TIP3      H2             11.2151416386        7.2881743859      -22.2866446549  W2        856             0.0000000000
      2569       857  TIP3      OH2            -2.3487683614       11.1568843859      -13.4809146549  W2        857             0.0000000000
      2570       857  TIP3      H1             -2.1317383614       10.2251243859      -13.5119446549  W2        857             0.0000000000
      2571       857  TIP3      H2             -2.1024183614       11.4313843859      -12.5976346549  W2        857             0.0000000000
      2572       858  TIP3      OH2             3.5126916386        9.6083843859      -26.2716946549  W2        858             0.0000000000
      2573       858  TIP3      H1              3.7516716386        8.8601943859      -26.8188046549  W2        858             0.0000000000
      2574       858  TIP3      H2              3.2438216386        9.2205543859      -25.4389146549  W2        858             0.0000000000
      2575       859  TIP3      OH2             2.4497516386        9.1787643859      -23.8154346549  W2        859             0.0000000000
      2576       859  TIP3      H1              2.5965516386        8.6587443859      -23.0253446549  W2        859             0.0000000000
      2577       859  TIP3      H2              2.4469216386       10.0855243859      -23.5088446549  W2        859             0.0000000000
      2578       860  TIP3      OH2            -1.0971383614        6.4310943859      -23.3048946549  W2        860             0.0000000000
      2579       860  TIP3      H1             -1.7832083614        6.7833443859      -22.7379246549  W2        860             0.0000000000
      2580       860  TIP3      H2             -0.5743483614        7.1940543859      -23.5514646549  W2        860             0.0000000000
      2581       861  TIP3      OH2             6.7343716386       -0.9065256141      -13.0259946549  W2        861             0.0000000000
      2582       861  TIP3      H1              7.4331616386       -0.8326556141      -12.3760246549  W2        861             0.0000000000
      2583       861  TIP3      H2              6.3535116386       -1.7710256141      -12.8717046549  W2        861             0.0000000000
      2584       862  TIP3      OH2             7.5188616386       -1.2543556141      -21.9287646549  W2        862             0.0000000000
      2585       862  TIP3      H1              7.7386916386       -0.7828156141      -22.7322246549  W2        862             0.0000000000
      2586       862  TIP3      H2              8.0772616386       -0.8600956141      -21.2587046549  W2        862             0.0000000000
      2587       863  TIP3      OH2             5.1874716386       10.8761243859      -23.0660146549  W2        863             0.0000000000
      2588       863  TIP3      H1              4.3710816386       11.3730943859      -23.0135846549  W2        863             0.0000000000
      2589       863  TIP3      H2              5.7171016386       11.3514743859      -23.7061346549  W2        863             0.0000000000
      2590       864  TIP3      OH2             4.7188516386        0.4735243859      -21.0939246549  W2        864             0.0000000000
      2591       864  TIP3      H1              5.5311116386        0.9778443859      -21.0477546549  W2        864             0.0000000000
      2592       864  TIP3      H2              4.4741516386        0.3284943859      -20.1799646549  W2        864             0.0000000000
      2593       865  TIP3      OH2             5.2544916386        1.4597943859      -11.9092646549  W2        865             0.0000000000
      2594       865  TIP3      H1              5.3735216386        2.0333343859      -11.1522246549  W2        865             0.0000000000
      2595       865  TIP3      H2              5.9099516386        0.7717343859      -11.7944846549  W2        865             0.0000000000
      2596       866  TIP3      OH2             5.6025216386       -2.4451756141      -20.1558146549  W2        866             0.0000000000
      2597       866  TIP3      H1              5.2558716386       -1.8281156141      -19.5113846549  W2        866             0.0000000000
      2598       866  TIP3      H2              6.2612116386       -1.9446056141      -20.6372646549  W2        866             0.0000000000
      2599       867  TIP3      OH2             2.5257816386       11.9198443859      -23.0843246549  W2        867             0.0000000000
      2600       867  TIP3      H1              2.6866516386       12.7195943859      -23.5850646549  W2        867             0.0000000000
      2601       867  TIP3      H2              2.3285616386       12.2264443859      -22.1992646549  W2        867             0.0000000000
      2602       868  TIP3      OH2             1.2602216386       -1.3822356141      -23.4685646549  W2        868             0.0000000000
      2603       868  TIP3      H1              1.1767016386       -0.4939256141      -23.1219246549  W2        868             0.0000000000
      2604       868  TIP3      H2              2.1502516386       -1.6475656141      -23.2368846549  W2        868             0.0000000000
      2605       869  TIP3      OH2            11.4590716386       -0.6331756141      -11.0742946549  W2        869             0.0000000000
      2606       869  TIP3      H1             10.5426516386       -0.3710056141      -11.1619246549  W2        869             0.0000000000
      2607       869  TIP3      H2             11.7945716386       -0.6362756141      -11.9707646549  W2        869             0.0000000000
      2608       870  TIP3      OH2            10.0611716386        3.1169243859      -16.9785646549  W2        870             0.0000000000
      2609       870  TIP3      H1              9.2636116386        2.7019443859      -17.3070646549  W2        870             0.0000000000
      2610       870  TIP3      H2             10.5062816386        2.4262943859      -16.4875146549  W2        870             0.0000000000
      2611       871  TIP3      OH2            -0.4812483614        9.0449843859      -24.4081146549  W2        871             0.0000000000
      2612       871  TIP3      H1              0.1109016386        9.7444643859      -24.1318746549  W2        871             0.0000000000
      2613       871  TIP3      H2             -0.0219483614        8.6119343859      -25.1276546549  W2        871             0.0000000000
      2614       872  TIP3      OH2            -2.1653283614        1.7092843859      -25.2921746549  W2        872             0.0000000000
      2615       872  TIP3      H1             -2.2100683614        2.6485943859      -25.1134746549  W2        872             0.0000000000
      2616       872  TIP3      H2             -3.0530083614        1.4737743859      -25.5619646549  W2        872             0.0000000000
      2617       873  TIP3      OH2            11.1476316386       12.3731743859      -15.3562146549  W2        873             0.0000000000
      2618       873  TIP3      H1             10.9920616386       13.0516143859      -16.0132846549  W2        873             0.0000000000
      2619       873  TIP3      H2             12.0802716386       12.4451043859      -15.1531546549  W2        873             0.0000000000
      2620       874  TIP3      OH2            -1.3571283614       -3.5090556141      -16.6190746549  W2        874             0.0000000000
      2621       874  TIP3      H1             -1.5861483614       -3.4498056141      -17.5465746549  W2        874             0.0000000000
      2622       874  TIP3      H2             -1.7997883614       -4.3005056141      -16.3126646549  W2        874             0.0000000000
      2623       875  TIP3      OH2            -2.4267983614       10.4316543859      -20.4584946549  W2        875             0.0000000000
      2624       875  TIP3      H1             -3.2589383614       10.9039243859      -20.4313546549  W2        875             0.0000000000
      2625       875  TIP3      H2             -1.8809683614       10.9414143859      -21.0571846549  W2        875             0.0000000000
      2626       876  TIP3      OH2            -3.1384283614       13.0440243859       -9.1286946549  W2        876             0.0000000000
      2627       876  TIP3      H1             -2.5982083614       12.8274243859       -8.3687746549  W2        876             0.0000000000
      2628       876  TIP3      H2             -3.6196283614       12.2386243859       -9.3184446549  W2        876             0.0000000000
      2629       877  TIP3      OH2             1.4589116386       11.9634643859       -7.5082746549  W2        877             0.0000000000
      2630       877  TIP3      H1              2.2266316386       11.5045443859       -7.1673546549  W2        877             0.0000000000
      2631       877  TIP3      H2              1.4375316386       11.7374443859       -8.4381546549  W2        877             0.0000000000
      2632       878  TIP3      OH2             5.5508716386       11.4715243859      -26.1330946549  W2        878             0.0000000000
      2633       878  TIP3      H1              4.9069716386       10.8403843859      -25.8117246549  W2        878             0.0000000000
      2634       878  TIP3      H2              6.3127016386       10.9403243859      -26.3647446549  W2        878             0.0000000000
      2635       879  TIP3      OH2             8.0357816386       10.3435743859       -8.7791246549  W2        879             0.0000000000
      2636       879  TIP3      H1              7.6847316386        9.4868743859       -8.5360846549  W2        879             0.0000000000
      2637       879  TIP3      H2              8.7621016386       10.4862443859       -8.1722246549  W2        879             0.0000000000
      2638       880  TIP3      OH2            10.1551616386       11.2885143859      -25.8992946549  W2        880             0.0000000000
      2639       880  TIP3      H1             10.4382016386       10.4940343859      -25.4466046549  W2        880             0.0000000000
      2640       880  TIP3      H2             10.8949516386       11.5216143859      -26.4601846549  W2        880             0.0000000000
      2641       881  TIP3      OH2            -3.2314783614        6.8544343859       -8.1742646549  W2        881             0.0000000000
      2642       881  TIP3      H1             -3.0874283614        5.9525043859       -8.4605946549  W2        881             0.0000000000
      2643       881  TIP3      H2             -4.0037383614        7.1406443859       -8.6620346549  W2        881             0.0000000000
      2644       882  TIP3      OH2             1.1098916386        7.1980043859      -26.0418046549  W2        882             0.0000000000
      2645       882  TIP3      H1              1.1743016386        6.4039643859      -25.5111646549  W2        882             0.0000000000
      2646       882  TIP3      H2              1.7628116386        7.0792843859      -26.7316046549  W2        882             0.0000000000
      2647       883  TIP3      OH2             3.4241316386        6.8242443859       -8.7416246549  W2        883             0.0000000000
      2648       883  TIP3      H1              3.0955116386        7.0950543859       -9.5988846549  W2        883             0.0000000000
      2649       883  TIP3      H2              3.5759516386        5.8832243859       -8.8291246549  W2        883             0.0000000000
      2650       884  TIP3      OH2             6.4622316386        8.2451743859      -26.3060046549  W2        884             0.0000000000
      2651       884  TIP3      H1              6.1936416386        8.4253843859      -25.4051146549  W2        884             0.0000000000
      2652       884  TIP3      H2              6.2557916386        7.3197943859      -26.4374246549  W2        884             0.0000000000
      2653       885  TIP3      OH2             9.1586516386        6.7399743859      -11.3583946549  W2        885             0.0000000000
      2654       885  TIP3      H1              9.9041316386        7.3283443859      -11.4779946549  W2        885             0.0000000000
      2655       885  TIP3      H2              8.4013316386        7.3219443859      -11.2950846549  W2        885             0.0000000000
      2656       886  TIP3      OH2            -2.3988283614        4.0547643859       -8.7543346549  W2        886             0.0000000000
      2657       886  TIP3      H1             -1.9907083614        3.1974243859       -8.8752746549  W2        886             0.0000000000
      2658       886  TIP3      H2             -2.6590683614        4.0688943859       -7.8333046549  W2        886             0.0000000000
      2659       887  TIP3      OH2             2.2592716386        5.1706243859      -23.7360046549  W2        887             0.0000000000
      2660       887  TIP3      H1              1.7994716386        4.6864543859      -23.0501546549  W2        887             0.0000000000
      2661       887  TIP3      H2              2.5141416386        4.5021643859      -24.3719546549  W2        887             0.0000000000
      2662       888  TIP3      OH2             1.5482016386        3.0633343859      -11.3800446549  W2        888             0.0000000000
      2663       888  TIP3      H1              0.9298116386        3.7379943859      -11.0995746549  W2        888             0.0000000000
      2664       888  TIP3      H2              1.8923216386        3.3847243859      -12.2134246549  W2        888             0.0000000000
      2665       889  TIP3      OH2             3.3303116386        3.4138043859      -25.4736846549  W2        889             0.0000000000
      2666       889  TIP3      H1              3.1498116386        3.2589243859      -26.4008546549  W2        889             0.0000000000
      2667       889  TIP3      H2              4.2803616386        3.5216743859      -25.4288946549  W2        889             0.0000000000
      2668       890  TIP3      OH2             6.5680216386        5.5348643859       -8.1025646549  W2        890             0.0000000000
      2669       890  TIP3      H1              7.5211416386        5.6187743859       -8.1299646549  W2        890             0.0000000000
      2670       890  TIP3      H2              6.4074816386        4.8230443859       -7.4830746549  W2        890             0.0000000000
      2671       891  TIP3      OH2            12.7201416386        5.7682243859      -26.0278746549  W2        891             0.0000000000
      2672       891  TIP3      H1             12.4466216386        5.3437743859      -26.8410446549  W2        891             0.0000000000
      2673       891  TIP3      H2             12.7595516386        6.6996743859      -26.2448346549  W2        891             0.0000000000
      2674       892  TIP3      OH2             1.8875716386        0.4184143859      -10.2977346549  W2        892             0.0000000000
      2675       892  TIP3      H1              2.0376616386       -0.3104556141      -10.8997646549  W2        892             0.0000000000
      2676       892  TIP3      H2              1.8898116386        1.1955843859      -10.8565146549  W2        892             0.0000000000
      2677       893  TIP3      OH2             2.3001416386       -1.2120056141      -12.8049946549  W2        893             0.0000000000
      2678       893  TIP3      H1              2.8358916386       -0.7603356141      -13.4570646549  W2        893             0.0000000000
      2679       893  TIP3      H2              1.4481016386       -1.3200256141      -13.2275846549  W2        893             0.0000000000
      2680       894  TIP3      OH2             3.8819816386        4.2276143859      -12.5654746549  W2        894             0.0000000000
      2681       894  TIP3      H1              4.6324616386        4.0713643859      -13.1386946549  W2        894             0.0000000000
      2682       894  TIP3      H2              3.5428116386        5.0792743859      -12.8409246549  W2        894             0.0000000000
      2683       895  TIP3      OH2             8.2976016386        2.0427943859       -7.5369446549  W2        895             0.0000000000
      2684       895  TIP3      H1              8.4897316386        1.1117343859       -7.6484946549  W2        895             0.0000000000
      2685       895  TIP3      H2              9.1552316386        2.4677443859       -7.5474046549  W2        895             0.0000000000
      2686       896  TIP3      OH2             9.6143216386        4.8313143859       -9.4596746549  W2        896             0.0000000000
      2687       896  TIP3      H1              9.3328216386        5.5407743859      -10.0372946549  W2        896             0.0000000000
      2688       896  TIP3      H2             10.5567516386        4.7586143859       -9.6105546549  W2        896             0.0000000000
      2689       897  TIP3      OH2             0.3662016386        1.6167643859       -8.3861746549  W2        897             0.0000000000
      2690       897  TIP3      H1             -0.4008983614        1.0842443859       -8.5964146549  W2        897             0.0000000000
      2691       897  TIP3      H2              1.0451016386        1.3068043859       -8.9855446549  W2        897             0.0000000000
      2692       898  TIP3      OH2             3.1056916386       -3.7554356141      -12.3736346549  W2        898             0.0000000000
      2693       898  TIP3      H1              3.0076516386       -2.8091156141      -12.4790146549  W2        898             0.0000000000
      2694       898  TIP3      H2              2.3633116386       -4.1280556141      -12.8492846549  W2        898             0.0000000000
      2695       899  TIP3      OH2             4.3697416386        0.5661043859       -8.8097946549  W2        899             0.0000000000
      2696       899  TIP3      H1              4.1342816386        0.3467743859       -7.9083046549  W2        899             0.0000000000
      2697       899  TIP3      H2              3.5864316386        0.3592243859       -9.3195446549  W2        899             0.0000000000
      2698       900  TIP3      OH2             7.0854016386       -0.3065456141       -9.7344446549  W2        900             0.0000000000
      2699       900  TIP3      H1              6.1379416386       -0.2745756141       -9.6021146549  W2        900             0.0000000000
      2700       900  TIP3      H2              7.3980716386       -0.9318356141       -9.0806246549  W2        900             0.0000000000
      2701       901  TIP3      OH2             8.7195516386       -1.6724356141       -7.7292546549  W2        901             0.0000000000
      2702       901  TIP3      H1              8.6227316386       -2.6247056141       -7.7350646549  W2        901             0.0000000000
      2703       901  TIP3      H2              8.3978616386       -1.4037556141       -6.8687046549  W2        901             0.0000000000
      2704       902  TIP3      OH2            -1.4535183614       -0.4628556141       -8.6817046549  W2        902             0.0000000000
      2705       902  TIP3      H1             -1.2417783614       -1.1692456141       -9.2919546549  W2        902             0.0000000000
      2706       902  TIP3      H2             -1.5647683614       -0.9002556141       -7.8375846549  W2        902             0.0000000000
      2707       903  TIP3      OH2             3.3275016386       -4.4616956141       -9.7023546549  W2        903             0.0000000000
      2708       903  TIP3      H1              4.0393416386       -5.1014756141       -9.7164446549  W2        903             0.0000000000
      2709       903  TIP3      H2              3.2265416386       -4.1948656141      -10.6160446549  W2        903             0.0000000000
      2710       904  TIP3      OH2             3.6812516386       -2.7788556141       -7.6487246549  W2        904             0.0000000000
      2711       904  TIP3      H1              3.5494716386       -3.2544756141       -8.4688746549  W2        904             0.0000000000
      2712       904  TIP3      H2              3.0819916386       -2.0344956141       -7.7040146549  W2        904             0.0000000000
      2713       905  TIP3      OH2             3.2274816386       14.1041743859      -24.4723246549  W2        905             0.0000000000
      2714       905  TIP3      H1              4.1605516386       14.2620443859      -24.3284846549  W2        905             0.0000000000
      2715       905  TIP3      H2              2.9633616386       14.7794743859      -25.0971746549  W2        905             0.0000000000
      2716       906  TIP3      OH2            -3.2040283614        8.7405543859      -24.9895146549  W2        906             0.0000000000
      2717       906  TIP3      H1             -2.2901083614        8.8194443859      -24.7161246549  W2        906             0.0000000000
      2718       906  TIP3      H2             -3.1967183614        8.0535143859      -25.6559546549  W2        906             0.0000000000
      2719       907  TIP3      OH2            -4.5549683614       14.1334043859      -19.9121246549  W2        907             0.0000000000
      2720       907  TIP3      H1             -5.2022583614       13.6715743859      -20.4450046549  W2        907             0.0000000000
      2721       907  TIP3      H2             -4.2005083614       13.4617343859      -19.3295046549  W2        907             0.0000000000
      2722       908  TIP3      OH2            -3.6850483614       12.2141043859      -18.1075046549  W2        908             0.0000000000
      2723       908  TIP3      H1             -4.0193683614       11.3338343859      -17.9354846549  W2        908             0.0000000000
      2724       908  TIP3      H2             -3.4628083614       12.5596043859      -17.2429446549  W2        908             0.0000000000
      2725       909  TIP3      OH2            13.8634316386       13.0237443859      -15.1270246549  W2        909             0.0000000000
      2726       909  TIP3      H1             13.8421016386       13.2085843859      -14.1880846549  W2        909             0.0000000000
      2727       909  TIP3      H2             14.5540516386       13.5921443859      -15.4678846549  W2        909             0.0000000000
      2728       910  TIP3      OH2            13.4267216386       12.5908543859      -12.2051146549  W2        910             0.0000000000
      2729       910  TIP3      H1             12.9395916386       11.8552643859      -12.5763746549  W2        910             0.0000000000
      2730       910  TIP3      H2             13.9759916386       12.1972443859      -11.5271746549  W2        910             0.0000000000
      2731       911  TIP3      OH2            11.8774516386        8.3806643859       -7.5670846549  W2        911             0.0000000000
      2732       911  TIP3      H1             11.0115616386        8.2756343859       -7.1728546549  W2        911             0.0000000000
      2733       911  TIP3      H2             12.2540416386        9.1389943859       -7.1206146549  W2        911             0.0000000000
      2734       912  TIP3      OH2            13.1784216386        6.6370343859      -22.0528346549  W2        912             0.0000000000
      2735       912  TIP3      H1             14.0285616386        7.0581243859      -21.9256746549  W2        912             0.0000000000
      2736       912  TIP3      H2             13.1839316386        5.8970443859      -21.4456946549  W2        912             0.0000000000
      2737       913  TIP3      OH2            13.5729816386        4.6907743859      -20.2292646549  W2        913             0.0000000000
      2738       913  TIP3      H1             12.8464416386        4.2110343859      -19.8315046549  W2        913             0.0000000000
      2739       913  TIP3      H2             14.1543116386        4.8962443859      -19.4971046549  W2        913             0.0000000000
      2740       914  TIP3      OH2            13.3321016386        7.4755243859      -15.2815046549  W2        914             0.0000000000
      2741       914  TIP3      H1             14.1655216386        7.0975243859      -15.5621446549  W2        914             0.0000000000
      2742       914  TIP3      H2             13.4441316386        8.4186443859      -15.4005946549  W2        914             0.0000000000
      2743       915  TIP3      OH2            11.8183316386       10.3532743859      -12.9746646549  W2        915             0.0000000000
      2744       915  TIP3      H1             11.1708616386       10.6784243859      -12.3491446549  W2        915             0.0000000000
      2745       915  TIP3      H2             11.3007316386        9.9130443859      -13.6488346549  W2        915             0.0000000000
      2746       916  TIP3      OH2            13.8412916386        4.5916243859      -23.8381346549  W2        916             0.0000000000
      2747       916  TIP3      H1             13.3194016386        4.9480343859      -24.5570446549  W2        916             0.0000000000
      2748       916  TIP3      H2             13.8082116386        5.2664043859      -23.1600446549  W2        916             0.0000000000
      2749       917  TIP3      OH2            12.1901916386        1.8311843859      -25.2874246549  W2        917             0.0000000000
      2750       917  TIP3      H1             12.2866316386        2.4978843859      -25.9674546549  W2        917             0.0000000000
      2751       917  TIP3      H2             12.0501516386        1.0158143859      -25.7688746549  W2        917             0.0000000000
      2752       918  TIP3      OH2            11.3596616386        3.2114243859      -19.6663946549  W2        918             0.0000000000
      2753       918  TIP3      H1             11.2095416386        2.2662843859      -19.6866146549  W2        918             0.0000000000
      2754       918  TIP3      H2             11.0061116386        3.4925643859      -18.8224846549  W2        918             0.0000000000
      2755       919  TIP3      OH2            -3.6050983614        5.2896443859      -15.6560146549  W2        919             0.0000000000
      2756       919  TIP3      H1             -3.4208083614        5.2078143859      -16.5917246549  W2        919             0.0000000000
      2757       919  TIP3      H2             -2.7558083614        5.1653443859      -15.2323746549  W2        919             0.0000000000
      2758       920  TIP3      OH2            12.2159516386        5.1817543859      -10.0275646549  W2        920             0.0000000000
      2759       920  TIP3      H1             12.7986816386        4.4469843859       -9.8358446549  W2        920             0.0000000000
      2760       920  TIP3      H2             12.7798816386        5.9537843859       -9.9809846549  W2        920             0.0000000000
      2761       921  TIP3      OH2            13.7126616386        3.0843343859       -9.3430246549  W2        921             0.0000000000
      2762       921  TIP3      H1             12.8493316386        2.7055443859       -9.5085546549  W2        921             0.0000000000
      2763       921  TIP3      H2             14.3170316386        2.3458143859       -9.4174446549  W2        921             0.0000000000
      2764       922  TIP3      OH2            11.4375716386       -0.7608356141      -26.1698746549  W2        922             0.0000000000
      2765       922  TIP3      H1             12.0481516386       -1.1321556141      -25.5330546549  W2        922             0.0000000000
      2766       922  TIP3      H2             10.6007216386       -1.1821456141      -25.9738746549  W2        922             0.0000000000
      2767       923  TIP3      OH2            11.0701416386        0.7940043859      -21.2038846549  W2        923             0.0000000000
      2768       923  TIP3      H1             11.3498516386       -0.1129556141      -21.0797146549  W2        923             0.0000000000
      2769       923  TIP3      H2             11.8293116386        1.2281543859      -21.5929646549  W2        923             0.0000000000
      2770       924  TIP3      OH2            11.6819716386        1.3757443859      -15.7679946549  W2        924             0.0000000000
      2771       924  TIP3      H1             12.6147716386        1.5877343859      -15.8023946549  W2        924             0.0000000000
      2772       924  TIP3      H2             11.4467216386        1.4769543859      -14.8456946549  W2        924             0.0000000000
      2773       925  TIP3      OH2            11.7111616386        2.1122743859      -12.9920546549  W2        925             0.0000000000
      2774       925  TIP3      H1             10.8682916386        2.3803143859      -12.6260746549  W2        925             0.0000000000
      2775       925  TIP3      H2             12.1535916386        2.9344643859      -13.2029446549  W2        925             0.0000000000
      2776       926  TIP3      OH2            -4.0076183614        0.5601443859       -9.5151346549  W2        926             0.0000000000
      2777       926  TIP3      H1             -3.0881283614        0.4379743859       -9.2788246549  W2        926             0.0000000000
      2778       926  TIP3      H2             -4.4571683614       -0.1898856141       -9.1257846549  W2        926             0.0000000000
      2779       927  TIP3      OH2            13.9943216386       -3.9077056141       -7.6385546549  W2        927             0.0000000000
      2780       927  TIP3      H1             14.3440216386       -4.5613556141       -8.2440846549  W2        927             0.0000000000
      2781       927  TIP3      H2             14.1412716386       -3.0702956141       -8.0782946549  W2        927             0.0000000000
      2782       928  TIP3      OH2            11.6836216386       -1.9430656141      -21.1556846549  W2        928             0.0000000000
      2783       928  TIP3      H1             11.8661216386       -2.3919156141      -20.3301846549  W2        928             0.0000000000
      2784       928  TIP3      H2             11.0839116386       -2.5276256141      -21.6192246549  W2        928             0.0000000000
      2785       929  TIP3      OH2            -2.7863683614       -1.1276956141      -16.6238446549  W2        929             0.0000000000
      2786       929  TIP3      H1             -2.3412083614       -1.9194456141      -16.3218746549  W2        929             0.0000000000
      2787       929  TIP3      H2             -2.3200683614       -0.4111756141      -16.1932846549  W2        929             0.0000000000
      2788       930  TIP3      OH2            -4.4823383614        1.8716043859      -15.5548246549  W2        930             0.0000000000
      2789       930  TIP3      H1             -3.9903583614        1.6506543859      -16.3456246549  W2        930             0.0000000000
      2790       930  TIP3      H2             -4.1202483614        2.7119443859      -15.2738746549  W2        930             0.0000000000
      2791       931  TIP3      OH2            13.5140416386       -1.7982456141       -9.2894246549  W2        931             0.0000000000
      2792       931  TIP3      H1             12.5966116386       -1.5275356141       -9.3250746549  W2        931             0.0000000000
      2793       931  TIP3      H2             13.6369816386       -2.3334056141      -10.0734546549  W2        931             0.0000000000
      2794       932  TIP3      OH2            13.5502416386       -1.8752556141      -24.6276546549  W2        932             0.0000000000
      2795       932  TIP3      H1             13.9625016386       -2.5966856141      -25.1028546549  W2        932             0.0000000000
      2796       932  TIP3      H2             14.2318916386       -1.2057956141      -24.5692246549  W2        932             0.0000000000
      2797       933  TIP3      OH2            -4.1686883614       -1.8704856141      -21.5005846549  W2        933             0.0000000000
      2798       933  TIP3      H1             -5.0938483614       -1.6618256141      -21.6300346549  W2        933             0.0000000000
      2799       933  TIP3      H2             -3.7146983614       -1.3864056141      -22.1903546549  W2        933             0.0000000000
      2800       934  TIP3      OH2            10.6020316386       13.1136843859      -19.5548446549  W2        934             0.0000000000
      2801       934  TIP3      H1             11.2543216386       12.7658943859      -20.1629346549  W2        934             0.0000000000
      2802       934  TIP3      H2             11.1124116386       13.6020043859      -18.9088746549  W2        934             0.0000000000
      2803       935  TIP3      OH2            -4.2051483614       -3.1325856141      -13.1563346549  W2        935             0.0000000000
      2804       935  TIP3      H1             -4.8700983614       -3.3785556141      -12.5132446549  W2        935             0.0000000000
      2805       935  TIP3      H2             -4.6480183614       -2.5105456141      -13.7335346549  W2        935             0.0000000000
      2806       936  TIP3      OH2            -2.0132183614       10.0428243859       -9.0117546549  W2        936             0.0000000000
      2807       936  TIP3      H1             -2.8339683614       10.2174743859       -9.4722846549  W2        936             0.0000000000
      2808       936  TIP3      H2             -2.2654383614        9.9692943859       -8.0913146549  W2        936             0.0000000000
      2809       937  TIP3      OH2             0.9410716386       11.0169443859      -12.7533546549  W2        937             0.0000000000
      2810       937  TIP3      H1              0.5161816386       11.8267943859      -13.0358946549  W2        937             0.0000000000
      2811       937  TIP3      H2              1.8453516386       11.1023543859      -13.0553746549  W2        937             0.0000000000
      2812       938  TIP3      OH2             5.2522116386       12.4159443859       -9.7939846549  W2        938             0.0000000000
      2813       938  TIP3      H1              5.4369616386       12.0825543859       -8.9159546549  W2        938             0.0000000000
      2814       938  TIP3      H2              6.0986616386       12.7258043859      -10.1160646549  W2        938             0.0000000000
      2815       939  TIP3      OH2             7.5972516386       13.7018343859      -10.5498446549  W2        939             0.0000000000
      2816       939  TIP3      H1              8.2741416386       13.0690643859      -10.7899246549  W2        939             0.0000000000
      2817       939  TIP3      H2              7.9191316386       14.1028843859       -9.7425146549  W2        939             0.0000000000
      2818       940  TIP3      OH2            12.5146316386       -3.7086156141      -11.4703446549  W2        940             0.0000000000
      2819       940  TIP3      H1             11.7019816386       -3.3835856141      -11.8578746549  W2        940             0.0000000000
      2820       940  TIP3      H2             12.7474816386       -4.4687656141      -12.0034346549  W2        940             0.0000000000
      2821       941  TIP3      OH2            -1.6572583614       14.2733343859      -12.7058246549  W2        941             0.0000000000
      2822       941  TIP3      H1             -2.3776183614       14.7134343859      -13.1570546549  W2        941             0.0000000000
      2823       941  TIP3      H2             -2.0228583614       14.0228043859      -11.8574246549  W2        941             0.0000000000
      2824       942  TIP3      OH2             0.8100016386       13.8737243859      -13.6761046549  W2        942             0.0000000000
      2825       942  TIP3      H1             -0.0547783614       13.9455743859      -13.2720946549  W2        942             0.0000000000
      2826       942  TIP3      H2              0.7549016386       14.4204543859      -14.4598546549  W2        942             0.0000000000
      2827       943  TIP3      OH2             5.5205616386       13.7616143859      -14.5005046549  W2        943             0.0000000000
      2828       943  TIP3      H1              5.0639616386       14.2905843859      -15.1546646549  W2        943             0.0000000000
      2829       943  TIP3      H2              5.6833616386       14.3647543859      -13.7752746549  W2        943             0.0000000000
      2830       944  TIP3      OH2             7.8481916386       12.6395743859      -13.5554746549  W2        944             0.0000000000
      2831       944  TIP3      H1              6.9435616386       12.8045943859      -13.8212646549  W2        944             0.0000000000
      2832       944  TIP3      H2              8.2770516386       13.4927943859      -13.6211346549  W2        944             0.0000000000
      2833       945  TIP3      OH2            10.4523816386       14.2094843859      -13.2606946549  W2        945             0.0000000000
      2834       945  TIP3      H1             10.2705816386       15.1253743859      -13.4712046549  W2        945             0.0000000000
      2835       945  TIP3      H2             10.6291616386       13.7991943859      -14.1072346549  W2        945             0.0000000000
      2836       946  TIP3      OH2            -2.2424483614       12.8965843859      -15.7956446549  W2        946             0.0000000000
      2837       946  TIP3      H1             -2.2608483614       12.4710943859      -14.9384146549  W2        946             0.0000000000
      2838       946  TIP3      H2             -1.4376583614       12.5780843859      -16.2044246549  W2        946             0.0000000000
      2839       947  TIP3      OH2            -0.1011383614       11.6064543859      -17.1406546549  W2        947             0.0000000000
      2840       947  TIP3      H1             -0.3200683614       10.6901943859      -16.9710546549  W2        947             0.0000000000
      2841       947  TIP3      H2              0.7230816386       11.7464943859      -16.6745146549  W2        947             0.0000000000
      2842       948  TIP3      OH2             2.4361116386       12.0763843859      -16.2918546549  W2        948             0.0000000000
      2843       948  TIP3      H1              2.6486816386       11.1882843859      -16.5787646549  W2        948             0.0000000000
      2844       948  TIP3      H2              2.5006216386       12.0421543859      -15.3374546549  W2        948             0.0000000000
      2845       949  TIP3      OH2             5.9444816386       -2.2595556141      -17.1475246549  W2        949             0.0000000000
      2846       949  TIP3      H1              5.2701616386       -2.8889956141      -16.8919446549  W2        949             0.0000000000
      2847       949  TIP3      H2              6.5084016386       -2.7436656141      -17.7507346549  W2        949             0.0000000000
      2848       950  TIP3      OH2            11.0872016386       -4.1521556141      -17.0348146549  W2        950             0.0000000000
      2849       950  TIP3      H1             11.6909616386       -3.6046156141      -17.5367146549  W2        950             0.0000000000
      2850       950  TIP3      H2             10.2174016386       -3.8331156141      -17.2754046549  W2        950             0.0000000000
      2851       951  TIP3      OH2            12.8142416386       -3.0132856141      -18.7017246549  W2        951             0.0000000000
      2852       951  TIP3      H1             13.4259916386       -3.5277156141      -19.2283646549  W2        951             0.0000000000
      2853       951  TIP3      H2             13.1965816386       -2.1360756141      -18.6782846549  W2        951             0.0000000000
      2854       952  TIP3      OH2            -1.7287683614       -3.6255256141      -19.3255346549  W2        952             0.0000000000
      2855       952  TIP3      H1             -2.5057883614       -3.8600356141      -19.8329446549  W2        952             0.0000000000
      2856       952  TIP3      H2             -1.1984083614       -4.4223156141      -19.3167346549  W2        952             0.0000000000
      2857       953  TIP3      OH2            -2.8924283614       -3.8277156141      -23.5219246549  W2        953             0.0000000000
      2858       953  TIP3      H1             -2.4533583614       -3.2166656141      -24.1135746549  W2        953             0.0000000000
      2859       953  TIP3      H2             -3.5261883614       -3.2893056141      -23.0479246549  W2        953             0.0000000000
      2860       954  TIP3      OH2             2.8504916386       -3.6988156141      -19.5122246549  W2        954             0.0000000000
      2861       954  TIP3      H1              3.7248316386       -3.3103856141      -19.5417946549  W2        954             0.0000000000
      2862       954  TIP3      H2              2.7145716386       -3.9140356141      -18.5895046549  W2        954             0.0000000000
      2863       955  TIP3      OH2             8.4073316386       -3.6688356141      -17.8630546549  W2        955             0.0000000000
      2864       955  TIP3      H1              8.4834916386       -3.5736756141      -18.8124546549  W2        955             0.0000000000
      2865       955  TIP3      H2              8.1322516386       -4.5765456141      -17.7341446549  W2        955             0.0000000000
      2866       956  TIP3      OH2             9.7605916386       -3.6430556141      -22.1705546549  W2        956             0.0000000000
      2867       956  TIP3      H1              9.0577016386       -3.0281356141      -22.3804146549  W2        956             0.0000000000
      2868       956  TIP3      H2              9.3157316386       -4.4803856141      -22.0394646549  W2        956             0.0000000000
      2869       957  TIP3      OH2            -2.9914783614       12.1205043859      -22.6244146549  W2        957             0.0000000000
      2870       957  TIP3      H1             -3.6764883614       12.0823943859      -23.2919046549  W2        957             0.0000000000
      2871       957  TIP3      H2             -2.9877583614       13.0332643859      -22.3362046549  W2        957             0.0000000000
      2872       958  TIP3      OH2            -1.0315183614       -1.9115656141      -25.0795146549  W2        958             0.0000000000
      2873       958  TIP3      H1             -0.5401783614       -2.5413256141      -25.6069646549  W2        958             0.0000000000
      2874       958  TIP3      H2             -0.4078883614       -1.6156256141      -24.4163946549  W2        958             0.0000000000
      2875       959  TIP3      OH2             3.9944916386       -1.6184156141      -22.6224646549  W2        959             0.0000000000
      2876       959  TIP3      H1              4.1726216386       -2.2650956141      -21.9396046549  W2        959             0.0000000000
      2877       959  TIP3      H2              3.9411116386       -0.7846456141      -22.1553546549  W2        959             0.0000000000
      2878       960  TIP3      OH2             5.8728716386       13.3299943859      -24.2267946549  W2        960             0.0000000000
      2879       960  TIP3      H1              6.7388916386       13.6967343859      -24.4049746549  W2        960             0.0000000000
      2880       960  TIP3      H2              5.6261516386       12.8907943859      -25.0407146549  W2        960             0.0000000000
      2881       961  TIP3      OH2            12.5818316386       12.8930243859      -21.5476846549  W2        961             0.0000000000
      2882       961  TIP3      H1             12.3875416386       12.1452343859      -22.1127246549  W2        961             0.0000000000
      2883       961  TIP3      H2             12.5428416386       13.6510343859      -22.1308946549  W2        961             0.0000000000
      2884       962  TIP3      OH2            -1.7709683614       -3.1113356141       -9.8079146549  W2        962             0.0000000000
      2885       962  TIP3      H1             -2.1371483614       -3.8770756141       -9.3654446549  W2        962             0.0000000000
      2886       962  TIP3      H2             -0.8581183614       -3.0823156141       -9.5214046549  W2        962             0.0000000000
      2887       963  TIP3      OH2             0.2021116386       -3.7608956141       -8.2722046549  W2        963             0.0000000000
      2888       963  TIP3      H1              1.1004716386       -4.0348756141       -8.4568646549  W2        963             0.0000000000
      2889       963  TIP3      H2             -0.1845783614       -4.5032956141       -7.8079446549  W2        963             0.0000000000
      2890       964  TIP3      OH2            -1.1733583614       13.0405843859      -25.5992046549  W2        964             0.0000000000
      2891       964  TIP3      H1             -1.4408983614       13.3268743859      -24.7258946549  W2        964             0.0000000000
      2892       964  TIP3      H2             -0.4020983614       12.4945043859      -25.4469546549  W2        964             0.0000000000
      2893       965  TIP3      OH2             8.6233416386       -4.4283656141       -8.0899246549  W2        965             0.0000000000
      2894       965  TIP3      H1              8.7000616386       -4.8542956141       -7.2361546549  W2        965             0.0000000000
      2895       965  TIP3      H2              9.5170016386       -4.4148956141       -8.4325746549  W2        965             0.0000000000
      2896       966  TIP3      OH2            11.7994516386       11.6442643859       -9.3975046549  W2        966             0.0000000000
      2897       966  TIP3      H1             11.0176416386       11.4580643859       -9.9174446549  W2        966             0.0000000000
      2898       966  TIP3      H2             11.7274416386       12.5736943859       -9.1802546549  W2        966             0.0000000000
      2899       967  TIP3      OH2            17.5071216386        4.3999843859      -14.3549746549  W2        967             0.0000000000
      2900       967  TIP3      H1             17.5483316386        3.7743143859      -13.6317346549  W2        967             0.0000000000
      2901       967  TIP3      H2             18.2098916386        5.0238443859      -14.1729346549  W2        967             0.0000000000
      2902       968  TIP3      OH2            18.4304316386        8.8498743859      -15.8200646549  W2        968             0.0000000000
      2903       968  TIP3      H1             18.0609516386        8.0479243859      -16.1896346549  W2        968             0.0000000000
      2904       968  TIP3      H2             19.3715416386        8.6813643859      -15.7737246549  W2        968             0.0000000000
      2905       969  TIP3      OH2            15.0404816386        2.5101343859      -20.4271846549  W2        969             0.0000000000
      2906       969  TIP3      H1             14.5928216386        3.3560043859      -20.4455346549  W2        969             0.0000000000
      2907       969  TIP3      H2             14.4796016386        1.9305543859      -20.9426746549  W2        969             0.0000000000
      2908       970  TIP3      OH2            15.7510916386        4.6720943859      -18.3013846549  W2        970             0.0000000000
      2909       970  TIP3      H1             15.9644416386        3.9022543859      -17.7740846549  W2        970             0.0000000000
      2910       970  TIP3      H2             16.4888516386        4.7617643859      -18.9046246549  W2        970             0.0000000000
      2911       971  TIP3      OH2            19.8235916386       -0.2862056141      -17.9419046549  W2        971             0.0000000000
      2912       971  TIP3      H1             19.8667016386        0.5736443859      -18.3602746549  W2        971             0.0000000000
      2913       971  TIP3      H2             19.3660016386       -0.8387356141      -18.5755846549  W2        971             0.0000000000
      2914       972  TIP3      OH2            16.4437416386        2.1103743859      -17.1797646549  W2        972             0.0000000000
      2915       972  TIP3      H1             17.0974016386        1.5605443859      -16.7477546549  W2        972             0.0000000000
      2916       972  TIP3      H2             16.4676716386        1.8362743859      -18.0965646549  W2        972             0.0000000000
      2917       973  TIP3      OH2            21.6001916386        3.6605043859      -17.9646146549  W2        973             0.0000000000
      2918       973  TIP3      H1             22.2162916386        3.1340443859      -17.4552146549  W2        973             0.0000000000
      2919       973  TIP3      H2             21.0140716386        3.0203743859      -18.3682546549  W2        973             0.0000000000
      2920       974  TIP3      OH2            18.6337816386       -1.3683656141      -13.8678246549  W2        974             0.0000000000
      2921       974  TIP3      H1             18.4149516386       -0.8383056141      -14.6342246549  W2        974             0.0000000000
      2922       974  TIP3      H2             17.9658716386       -1.1418156141      -13.2206846549  W2        974             0.0000000000
      2923       975  TIP3      OH2            21.2029216386        6.3072043859      -13.5804546549  W2        975             0.0000000000
      2924       975  TIP3      H1             20.4628316386        6.9053543859      -13.4769346549  W2        975             0.0000000000
      2925       975  TIP3      H2             21.9168716386        6.8611643859      -13.8960946549  W2        975             0.0000000000
      2926       976  TIP3      OH2            18.2275116386        0.5238143859      -15.9156046549  W2        976             0.0000000000
      2927       976  TIP3      H1             18.8411416386        1.1565743859      -15.5423646549  W2        976             0.0000000000
      2928       976  TIP3      H2             18.7395816386        0.0513143859      -16.5719146549  W2        976             0.0000000000
      2929       977  TIP3      OH2            19.6103516386        8.2715043859      -12.7933046549  W2        977             0.0000000000
      2930       977  TIP3      H1             19.6051116386        9.1508543859      -13.1713746549  W2        977             0.0000000000
      2931       977  TIP3      H2             18.7567616386        8.1879143859      -12.3683146549  W2        977             0.0000000000
      2932       978  TIP3      OH2            15.7314416386        7.9422943859      -22.0113746549  W2        978             0.0000000000
      2933       978  TIP3      H1             15.4595316386        8.1713943859      -22.9000846549  W2        978             0.0000000000
      2934       978  TIP3      H2             15.7770116386        8.7801743859      -21.5508446549  W2        978             0.0000000000
      2935       979  TIP3      OH2            22.6602516386       -4.0628556141      -16.4153346549  W2        979             0.0000000000
      2936       979  TIP3      H1             22.5426716386       -5.0112556141      -16.4695046549  W2        979             0.0000000000
      2937       979  TIP3      H2             21.8052616386       -3.7302456141      -16.1422246549  W2        979             0.0000000000
      2938       980  TIP3      OH2            19.9778816386        5.6146543859      -19.0806646549  W2        980             0.0000000000
      2939       980  TIP3      H1             19.6474016386        5.2439943859      -19.8989646549  W2        980             0.0000000000
      2940       980  TIP3      H2             20.5662916386        4.9440543859      -18.7338346549  W2        980             0.0000000000
      2941       981  TIP3      OH2            21.3446316386        9.0427143859      -16.3994446549  W2        981             0.0000000000
      2942       981  TIP3      H1             21.2497616386        8.4640243859      -17.1559846549  W2        981             0.0000000000
      2943       981  TIP3      H2             22.0739916386        8.6712843859      -15.9031646549  W2        981             0.0000000000
      2944       982  TIP3      OH2            20.3444316386        4.3832143859      -15.4471646549  W2        982             0.0000000000
      2945       982  TIP3      H1             20.9096816386        4.5046343859      -16.2100446549  W2        982             0.0000000000
      2946       982  TIP3      H2             20.6633216386        5.0207143859      -14.8083146549  W2        982             0.0000000000
      2947       983  TIP3      OH2            21.2245016386        8.7824843859      -10.7299746549  W2        983             0.0000000000
      2948       983  TIP3      H1             20.9132516386        9.5648043859      -10.2746546549  W2        983             0.0000000000
      2949       983  TIP3      H2             20.5745216386        8.6293943859      -11.4157746549  W2        983             0.0000000000
      2950       984  TIP3      OH2            18.1444916386        4.9805943859      -11.5014046549  W2        984             0.0000000000
      2951       984  TIP3      H1             18.2148116386        5.6312743859      -10.8029046549  W2        984             0.0000000000
      2952       984  TIP3      H2             17.2537116386        5.0833443859      -11.8363146549  W2        984             0.0000000000
      2953       985  TIP3      OH2            19.4640916386       10.8539843859       -9.9665946549  W2        985             0.0000000000
      2954       985  TIP3      H1             19.4716216386       10.7179543859      -10.9140446549  W2        985             0.0000000000
      2955       985  TIP3      H2             18.5481316386       10.7367943859       -9.7145946549  W2        985             0.0000000000
      2956       986  TIP3      OH2            18.9681516386        4.6840843859      -21.4913846549  W2        986             0.0000000000
      2957       986  TIP3      H1             18.6762816386        5.4522543859      -21.9822546549  W2        986             0.0000000000
      2958       986  TIP3      H2             18.2936716386        4.0247043859      -21.6542446549  W2        986             0.0000000000
      2959       987  TIP3      OH2            15.0611616386        7.0470043859      -12.6764046549  W2        987             0.0000000000
      2960       987  TIP3      H1             14.5600016386        7.0189443859      -13.4914346549  W2        987             0.0000000000
      2961       987  TIP3      H2             15.0665316386        6.1413243859      -12.3666746549  W2        987             0.0000000000
      2962       988  TIP3      OH2            14.8114316386        9.8273843859      -15.7923846549  W2        988             0.0000000000
      2963       988  TIP3      H1             15.7574916386        9.6830843859      -15.8114346549  W2        988             0.0000000000
      2964       988  TIP3      H2             14.6990616386       10.6116643859      -15.2552646549  W2        988             0.0000000000
      2965       989  TIP3      OH2            18.0556416386       12.6283443859      -19.6469146549  W2        989             0.0000000000
      2966       989  TIP3      H1             18.2076816386       12.2803843859      -18.7682646549  W2        989             0.0000000000
      2967       989  TIP3      H2             17.2046816386       12.2720743859      -19.9021946549  W2        989             0.0000000000
      2968       990  TIP3      OH2            17.3102116386        8.3705443859      -11.6331246549  W2        990             0.0000000000
      2969       990  TIP3      H1             17.5263416386        8.0091043859      -10.7735446549  W2        990             0.0000000000
      2970       990  TIP3      H2             16.4546816386        7.9959243859      -11.8427746549  W2        990             0.0000000000
      2971       991  TIP3      OH2            19.9290116386       -3.1594056141      -15.6377046549  W2        991             0.0000000000
      2972       991  TIP3      H1             19.0673816386       -3.2465856141      -16.0454146549  W2        991             0.0000000000
      2973       991  TIP3      H2             19.9065816386       -2.3033956141      -15.2099446549  W2        991             0.0000000000
      2974       992  TIP3      OH2            20.0200216386        1.8060443859      -14.5426846549  W2        992             0.0000000000
      2975       992  TIP3      H1             19.3782316386        1.7657743859      -13.8336746549  W2        992             0.0000000000
      2976       992  TIP3      H2             20.0572216386        2.7325143859      -14.7803846549  W2        992             0.0000000000
      2977       993  TIP3      OH2            20.0169316386        2.0270543859      -19.6306846549  W2        993             0.0000000000
      2978       993  TIP3      H1             19.1242216386        1.6866643859      -19.6893046549  W2        993             0.0000000000
      2979       993  TIP3      H2             20.4675916386        1.6501443859      -20.3863646549  W2        993             0.0000000000
      2980       994  TIP3      OH2            17.7700716386        2.1263943859      -12.6754846549  W2        994             0.0000000000
      2981       994  TIP3      H1             17.7320116386        2.5265543859      -11.8067746549  W2        994             0.0000000000
      2982       994  TIP3      H2             17.2791816386        1.3096343859      -12.5851946549  W2        994             0.0000000000
      2983       995  TIP3      OH2            21.1358116386       -0.4993756141      -25.8768846549  W2        995             0.0000000000
      2984       995  TIP3      H1             20.7048816386       -0.9443656141      -25.1471446549  W2        995             0.0000000000
      2985       995  TIP3      H2             20.4176816386       -0.1277456141      -26.3891346549  W2        995             0.0000000000
      2986       996  TIP3      OH2            14.3781516386       -0.7574256141      -18.8250146549  W2        996             0.0000000000
      2987       996  TIP3      H1             15.0089216386       -0.7862156141      -18.1056246549  W2        996             0.0000000000
      2988       996  TIP3      H2             14.8275816386       -1.1825556141      -19.5554246549  W2        996             0.0000000000
      2989       997  TIP3      OH2            15.6523616386       -0.0112256141      -23.4009746549  W2        997             0.0000000000
      2990       997  TIP3      H1             16.1265316386        0.5797643859      -23.9858846549  W2        997             0.0000000000
      2991       997  TIP3      H2             14.9350016386        0.5190643859      -23.0539646549  W2        997             0.0000000000
      2992       998  TIP3      OH2            22.5984616386       -0.5451956141      -18.5442746549  W2        998             0.0000000000
      2993       998  TIP3      H1             21.6875716386       -0.4885156141      -18.2556746549  W2        998             0.0000000000
      2994       998  TIP3      H2             23.1037516386       -0.6056456141      -17.7335546549  W2        998             0.0000000000
      2995       999  TIP3      OH2            17.4268016386        1.0834343859      -19.7175146549  W2        999             0.0000000000
      2996       999  TIP3      H1             16.5376016386        1.1829843859      -20.0575546549  W2        999             0.0000000000
      2997       999  TIP3      H2             17.7232916386        0.2417343859      -20.0637246549  W2        999             0.0000000000
      2998      1000  TIP3      OH2            21.0799816386        1.0836943859      -22.0610546549  W2        1000            0.0000000000
      2999      1000  TIP3      H1             22.0115316386        1.2126943859      -21.8827446549  W2        1000            0.0000000000
      3000      1000  TIP3      H2             20.8650116386        1.7531243859      -22.7105846549  W2        1000            0.0000000000
      3001      1001  TIP3      OH2            19.7540016386        2.2779143859      -24.4944446549  W2        1001            0.0000000000
      3002      1001  TIP3      H1             19.2115116386        1.8982943859      -25.1856846549  W2        1001            0.0000000000
      3003      1001  TIP3      H2             20.5874916386        2.4723843859      -24.9230346549  W2        1001            0.0000000000
      3004      1002  TIP3      OH2            17.8891416386        6.8351043859       -9.3952846549  W2        1002            0.0000000000
      3005      1002  TIP3      H1             18.6213816386        7.0896943859       -8.8338346549  W2        1002            0.0000000000
      3006      1002  TIP3      H2             17.1090116386        7.0396443859       -8.8797446549  W2        1002            0.0000000000
      3007      1003  TIP3      OH2            18.9204016386       -1.6212856141      -20.2388346549  W2        1003            0.0000000000
      3008      1003  TIP3      H1             18.6033516386       -2.5237556141      -20.2742946549  W2        1003            0.0000000000
      3009      1003  TIP3      H2             19.7018116386       -1.6195456141      -20.7916746549  W2        1003            0.0000000000
      3010      1004  TIP3      OH2            22.5450216386        0.6307143859      -14.2432746549  W2        1004            0.0000000000
      3011      1004  TIP3      H1             21.7095516386        1.0846643859      -14.1330346549  W2        1004            0.0000000000
      3012      1004  TIP3      H2             23.0690816386        0.9065643859      -13.4912846549  W2        1004            0.0000000000
      3013      1005  TIP3      OH2            23.0892816386        6.8434843859      -22.5586346549  W2        1005            0.0000000000
      3014      1005  TIP3      H1             22.3443816386        6.3360143859      -22.8808446549  W2        1005            0.0000000000
      3015      1005  TIP3      H2             22.9550016386        6.8922843859      -21.6121546549  W2        1005            0.0000000000
      3016      1006  TIP3      OH2            18.2141116386        6.1384843859      -16.7888446549  W2        1006            0.0000000000
      3017      1006  TIP3      H1             18.9588316386        6.1360543859      -17.3901946549  W2        1006            0.0000000000
      3018      1006  TIP3      H2             18.2917716386        5.3148643859      -16.3073346549  W2        1006            0.0000000000
      3019      1007  TIP3      OH2            15.2220816386        4.5991743859      -11.4739946549  W2        1007            0.0000000000
      3020      1007  TIP3      H1             15.4449416386        4.1811343859      -10.6422446549  W2        1007            0.0000000000
      3021      1007  TIP3      H2             14.6200916386        3.9866743859      -11.8967146549  W2        1007            0.0000000000
      3022      1008  TIP3      OH2            22.2385716386        4.1161643859       -9.2610246549  W2        1008            0.0000000000
      3023      1008  TIP3      H1             21.9426516386        3.9504643859      -10.1561146549  W2        1008            0.0000000000
      3024      1008  TIP3      H2             23.1700916386        3.8961943859       -9.2716346549  W2        1008            0.0000000000
      3025      1009  TIP3      OH2            20.5890516386        9.6563043859      -19.3846946549  W2        1009            0.0000000000
      3026      1009  TIP3      H1             21.1162716386       10.4297443859      -19.5848146549  W2        1009            0.0000000000
      3027      1009  TIP3      H2             19.7089016386        9.8812243859      -19.6862946549  W2        1009            0.0000000000
      3028      1010  TIP3      OH2            16.3438216386        4.5187143859      -24.7974546549  W2        1010            0.0000000000
      3029      1010  TIP3      H1             16.9598116386        5.1454343859      -24.4179746549  W2        1010            0.0000000000
      3030      1010  TIP3      H2             15.4820816386        4.8346943859      -24.5258046549  W2        1010            0.0000000000
      3031      1011  TIP3      OH2            22.0162816386        7.3192943859      -19.8082646549  W2        1011            0.0000000000
      3032      1011  TIP3      H1             21.7752816386        8.2447343859      -19.7667346549  W2        1011            0.0000000000
      3033      1011  TIP3      H2             21.2756416386        6.8604243859      -19.4118746549  W2        1011            0.0000000000
      3034      1012  TIP3      OH2            22.5309416386       11.4686543859      -13.4931546549  W2        1012            0.0000000000
      3035      1012  TIP3      H1             22.8934116386       12.3232143859      -13.7267146549  W2        1012            0.0000000000
      3036      1012  TIP3      H2             23.0624616386       11.1768143859      -12.7525246549  W2        1012            0.0000000000
      3037      1013  TIP3      OH2            20.6993616386       12.3410543859      -20.2630446549  W2        1013            0.0000000000
      3038      1013  TIP3      H1             19.7494116386       12.4467943859      -20.2117146549  W2        1013            0.0000000000
      3039      1013  TIP3      H2             21.0511716386       13.1617943859      -19.9182946549  W2        1013            0.0000000000
      3040      1014  TIP3      OH2            16.8560316386       -0.6475556141      -11.9158546549  W2        1014            0.0000000000
      3041      1014  TIP3      H1             15.9632616386       -0.3090156141      -11.9834546549  W2        1014            0.0000000000
      3042      1014  TIP3      H2             16.7573116386       -1.5029456141      -11.4977746549  W2        1014            0.0000000000
      3043      1015  TIP3      OH2            16.5072316386       11.1568843859      -13.4809146549  W2        1015            0.0000000000
      3044      1015  TIP3      H1             16.7242616386       10.2251243859      -13.5119446549  W2        1015            0.0000000000
      3045      1015  TIP3      H2             16.7535816386       11.4313843859      -12.5976346549  W2        1015            0.0000000000
      3046      1016  TIP3      OH2            22.3686916386        9.6083843859      -26.2716946549  W2        1016            0.0000000000
      3047      1016  TIP3      H1             22.6076716386        8.8601943859      -26.8188046549  W2        1016            0.0000000000
      3048      1016  TIP3      H2             22.0998216386        9.2205543859      -25.4389146549  W2        1016            0.0000000000
      3049      1017  TIP3      OH2            21.3057516386        9.1787643859      -23.8154346549  W2        1017            0.0000000000
      3050      1017  TIP3      H1             21.4525516386        8.6587443859      -23.0253446549  W2        1017            0.0000000000
      3051      1017  TIP3      H2             21.3029216386       10.0855243859      -23.5088446549  W2        1017            0.0000000000
      3052      1018  TIP3      OH2            17.7588616386        6.4310943859      -23.3048946549  W2        1018            0.0000000000
      3053      1018  TIP3      H1             17.0727916386        6.7833443859      -22.7379246549  W2        1018            0.0000000000
      3054      1018  TIP3      H2             18.2816516386        7.1940543859      -23.5514646549  W2        1018            0.0000000000
      3055      1019  TIP3      OH2            21.3817816386       11.9198443859      -23.0843246549  W2        1019            0.0000000000
      3056      1019  TIP3      H1             21.5426516386       12.7195943859      -23.5850646549  W2        1019            0.0000000000
      3057      1019  TIP3      H2             21.1845616386       12.2264443859      -22.1992646549  W2        1019            0.0000000000
      3058      1020  TIP3      OH2            20.1162216386       -1.3822356141      -23.4685646549  W2        1020            0.0000000000
      3059      1020  TIP3      H1             20.0327016386       -0.4939256141      -23.1219246549  W2        1020            0.0000000000
      3060      1020  TIP3      H2             21.0062516386       -1.6475656141      -23.2368846549  W2        1020            0.0000000000
      3061      1021  TIP3      OH2            18.3747516386        9.0449843859      -24.4081146549  W2        1021            0.0000000000
      3062      1021  TIP3      H1             18.9669016386        9.7444643859      -24.1318746549  W2        1021            0.0000000000
      3063      1021  TIP3      H2             18.8340516386        8.6119343859      -25.1276546549  W2        1021            0.0000000000
      3064      1022  TIP3      OH2            16.6906716386        1.7092843859      -25.2921746549  W2        1022            0.0000000000
      3065      1022  TIP3      H1             16.6459316386        2.6485943859      -25.1134746549  W2        1022            0.0000000000
      3066      1022  TIP3      H2             15.8029916386        1.4737743859      -25.5619646549  W2        1022            0.0000000000
      3067      1023  TIP3      OH2            17.4988716386       -3.5090556141      -16.6190746549  W2        1023            0.0000000000
      3068      1023  TIP3      H1             17.2698516386       -3.4498056141      -17.5465746549  W2        1023            0.0000000000
      3069      1023  TIP3      H2             17.0562116386       -4.3005056141      -16.3126646549  W2        1023            0.0000000000
      3070      1024  TIP3      OH2            16.4292016386       10.4316543859      -20.4584946549  W2        1024            0.0000000000
      3071      1024  TIP3      H1             15.5970616386       10.9039243859      -20.4313546549  W2        1024            0.0000000000
      3072      1024  TIP3      H2             16.9750316386       10.9414143859      -21.0571846549  W2        1024            0.0000000000
      3073      1025  TIP3      OH2            15.7175716386       13.0440243859       -9.1286946549  W2        1025            0.0000000000
      3074      1025  TIP3      H1             16.2577916386       12.8274243859       -8.3687746549  W2        1025            0.0000000000
      3075      1025  TIP3      H2             15.2363716386       12.2386243859       -9.3184446549  W2        1025            0.0000000000
      3076      1026  TIP3      OH2            20.3149116386       11.9634643859       -7.5082746549  W2        1026            0.0000000000
      3077      1026  TIP3      H1             21.0826316386       11.5045443859       -7.1673546549  W2        1026            0.0000000000
      3078      1026  TIP3      H2             20.2935316386       11.7374443859       -8.4381546549  W2        1026            0.0000000000
      3079      1027  TIP3      OH2            15.6245216386        6.8544343859       -8.1742646549  W2        1027            0.0000000000
      3080      1027  TIP3      H1             15.7685716386        5.9525043859       -8.4605946549  W2        1027            0.0000000000
      3081      1027  TIP3      H2             14.8522616386        7.1406443859       -8.6620346549  W2        1027            0.0000000000
      3082      1028  TIP3      OH2            19.9658916386        7.1980043859      -26.0418046549  W2        1028            0.0000000000
      3083      1028  TIP3      H1             20.0303016386        6.4039643859      -25.5111646549  W2        1028            0.0000000000
      3084      1028  TIP3      H2             20.6188116386        7.0792843859      -26.7316046549  W2        1028            0.0000000000
      3085      1029  TIP3      OH2            22.2801316386        6.8242443859       -8.7416246549  W2        1029            0.0000000000
      3086      1029  TIP3      H1             21.9515116386        7.0950543859       -9.5988846549  W2        1029            0.0000000000
      3087      1029  TIP3      H2             22.4319516386        5.8832243859       -8.8291246549  W2        1029            0.0000000000
      3088      1030  TIP3      OH2            16.4571716386        4.0547643859       -8.7543346549  W2        1030            0.0000000000
      3089      1030  TIP3      H1             16.8652916386        3.1974243859       -8.8752746549  W2        1030            0.0000000000
      3090      1030  TIP3      H2             16.1969316386        4.0688943859       -7.8333046549  W2        1030            0.0000000000
      3091      1031  TIP3      OH2            21.1152716386        5.1706243859      -23.7360046549  W2        1031            0.0000000000
      3092      1031  TIP3      H1             20.6554716386        4.6864543859      -23.0501546549  W2        1031            0.0000000000
      3093      1031  TIP3      H2             21.3701416386        4.5021643859      -24.3719546549  W2        1031            0.0000000000
      3094      1032  TIP3      OH2            20.4042016386        3.0633343859      -11.3800446549  W2        1032            0.0000000000
      3095      1032  TIP3      H1             19.7858116386        3.7379943859      -11.0995746549  W2        1032            0.0000000000
      3096      1032  TIP3      H2             20.7483216386        3.3847243859      -12.2134246549  W2        1032            0.0000000000
      3097      1033  TIP3      OH2            22.1863116386        3.4138043859      -25.4736846549  W2        1033            0.0000000000
      3098      1033  TIP3      H1             22.0058116386        3.2589243859      -26.4008546549  W2        1033            0.0000000000
      3099      1033  TIP3      H2             23.1363616386        3.5216743859      -25.4288946549  W2        1033            0.0000000000
      3100      1034  TIP3      OH2            20.7435716386        0.4184143859      -10.2977346549  W2        1034            0.0000000000
      3101      1034  TIP3      H1             20.8936616386       -0.3104556141      -10.8997646549  W2        1034            0.0000000000
      3102      1034  TIP3      H2             20.7458116386        1.1955843859      -10.8565146549  W2        1034            0.0000000000
      3103      1035  TIP3      OH2            21.1561416386       -1.2120056141      -12.8049946549  W2        1035            0.0000000000
      3104      1035  TIP3      H1             21.6918916386       -0.7603356141      -13.4570646549  W2        1035            0.0000000000
      3105      1035  TIP3      H2             20.3041016386       -1.3200256141      -13.2275846549  W2        1035            0.0000000000
      3106      1036  TIP3      OH2            22.7379816386        4.2276143859      -12.5654746549  W2        1036            0.0000000000
      3107      1036  TIP3      H1             23.4884616386        4.0713643859      -13.1386946549  W2        1036            0.0000000000
      3108      1036  TIP3      H2             22.3988116386        5.0792743859      -12.8409246549  W2        1036            0.0000000000
      3109      1037  TIP3      OH2            19.2222016386        1.6167643859       -8.3861746549  W2        1037            0.0000000000
      3110      1037  TIP3      H1             18.4551016386        1.0842443859       -8.5964146549  W2        1037            0.0000000000
      3111      1037  TIP3      H2             19.9011016386        1.3068043859       -8.9855446549  W2        1037            0.0000000000
      3112      1038  TIP3      OH2            21.9616916386       -3.7554356141      -12.3736346549  W2        1038            0.0000000000
      3113      1038  TIP3      H1             21.8636516386       -2.8091156141      -12.4790146549  W2        1038            0.0000000000
      3114      1038  TIP3      H2             21.2193116386       -4.1280556141      -12.8492846549  W2        1038            0.0000000000
      3115      1039  TIP3      OH2            23.2257416386        0.5661043859       -8.8097946549  W2        1039            0.0000000000
      3116      1039  TIP3      H1             22.9902816386        0.3467743859       -7.9083046549  W2        1039            0.0000000000
      3117      1039  TIP3      H2             22.4424316386        0.3592243859       -9.3195446549  W2        1039            0.0000000000
      3118      1040  TIP3      OH2            17.4024816386       -0.4628556141       -8.6817046549  W2        1040            0.0000000000
      3119      1040  TIP3      H1             17.6142216386       -1.1692456141       -9.2919546549  W2        1040            0.0000000000
      3120      1040  TIP3      H2             17.2912316386       -0.9002556141       -7.8375846549  W2        1040            0.0000000000
      3121      1041  TIP3      OH2            22.1835016386       -4.4616956141       -9.7023546549  W2        1041            0.0000000000
      3122      1041  TIP3      H1             22.8953416386       -5.1014756141       -9.7164446549  W2        1041            0.0000000000
      3123      1041  TIP3      H2             22.0825416386       -4.1948656141      -10.6160446549  W2        1041            0.0000000000
      3124      1042  TIP3      OH2            22.5372516386       -2.7788556141       -7.6487246549  W2        1042            0.0000000000
      3125      1042  TIP3      H1             22.4054716386       -3.2544756141       -8.4688746549  W2        1042            0.0000000000
      3126      1042  TIP3      H2             21.9379916386       -2.0344956141       -7.7040146549  W2        1042            0.0000000000
      3127      1043  TIP3      OH2            22.0834816386       14.1041743859      -24.4723246549  W2        1043            0.0000000000
      3128      1043  TIP3      H1             23.0165516386       14.2620443859      -24.3284846549  W2        1043            0.0000000000
      3129      1043  TIP3      H2             21.8193616386       14.7794743859      -25.0971746549  W2        1043            0.0000000000
      3130      1044  TIP3      OH2            15.6519716386        8.7405543859      -24.9895146549  W2        1044            0.0000000000
      3131      1044  TIP3      H1             16.5658916386        8.8194443859      -24.7161246549  W2        1044            0.0000000000
      3132      1044  TIP3      H2             15.6592816386        8.0535143859      -25.6559546549  W2        1044            0.0000000000
      3133      1045  TIP3      OH2            14.3010316386       14.1334043859      -19.9121246549  W2        1045            0.0000000000
      3134      1045  TIP3      H1             13.6537416386       13.6715743859      -20.4450046549  W2        1045            0.0000000000
      3135      1045  TIP3      H2             14.6554916386       13.4617343859      -19.3295046549  W2        1045            0.0000000000
      3136      1046  TIP3      OH2            15.1709516386       12.2141043859      -18.1075046549  W2        1046            0.0000000000
      3137      1046  TIP3      H1             14.8366316386       11.3338343859      -17.9354846549  W2        1046            0.0000000000
      3138      1046  TIP3      H2             15.3931916386       12.5596043859      -17.2429446549  W2        1046            0.0000000000
      3139      1047  TIP3      OH2            15.2509016386        5.2896443859      -15.6560146549  W2        1047            0.0000000000
      3140      1047  TIP3      H1             15.4351916386        5.2078143859      -16.5917246549  W2        1047            0.0000000000
      3141      1047  TIP3      H2             16.1001916386        5.1653443859      -15.2323746549  W2        1047            0.0000000000
      3142      1048  TIP3      OH2            14.8483816386        0.5601443859       -9.5151346549  W2        1048            0.0000000000
      3143      1048  TIP3      H1             15.7678716386        0.4379743859       -9.2788246549  W2        1048            0.0000000000
      3144      1048  TIP3      H2             14.3988316386       -0.1898856141       -9.1257846549  W2        1048            0.0000000000
      3145      1049  TIP3      OH2            16.0696316386       -1.1276956141      -16.6238446549  W2        1049            0.0000000000
      3146      1049  TIP3      H1             16.5147916386       -1.9194456141      -16.3218746549  W2        1049            0.0000000000
      3147      1049  TIP3      H2             16.5359316386       -0.4111756141      -16.1932846549  W2        1049            0.0000000000
      3148      1050  TIP3      OH2            14.3736616386        1.8716043859      -15.5548246549  W2        1050            0.0000000000
      3149      1050  TIP3      H1             14.8656416386        1.6506543859      -16.3456246549  W2        1050            0.0000000000
      3150      1050  TIP3      H2             14.7357516386        2.7119443859      -15.2738746549  W2        1050            0.0000000000
      3151      1051  TIP3      OH2            14.6873116386       -1.8704856141      -21.5005846549  W2        1051            0.0000000000
      3152      1051  TIP3      H1             13.7621516386       -1.6618256141      -21.6300346549  W2        1051            0.0000000000
      3153      1051  TIP3      H2             15.1413016386       -1.3864056141      -22.1903546549  W2        1051            0.0000000000
      3154      1052  TIP3      OH2            14.6508516386       -3.1325856141      -13.1563346549  W2        1052            0.0000000000
      3155      1052  TIP3      H1             13.9859016386       -3.3785556141      -12.5132446549  W2        1052            0.0000000000
      3156      1052  TIP3      H2             14.2079816386       -2.5105456141      -13.7335346549  W2        1052            0.0000000000
      3157      1053  TIP3      OH2            16.8427816386       10.0428243859       -9.0117546549  W2        1053            0.0000000000
      3158      1053  TIP3      H1             16.0220316386       10.2174743859       -9.4722846549  W2        1053            0.0000000000
      3159      1053  TIP3      H2             16.5905616386        9.9692943859       -8.0913146549  W2        1053            0.0000000000
      3160      1054  TIP3      OH2            19.7970716386       11.0169443859      -12.7533546549  W2        1054            0.0000000000
      3161      1054  TIP3      H1             19.3721816386       11.8267943859      -13.0358946549  W2        1054            0.0000000000
      3162      1054  TIP3      H2             20.7013516386       11.1023543859      -13.0553746549  W2        1054            0.0000000000
      3163      1055  TIP3      OH2            17.1987416386       14.2733343859      -12.7058246549  W2        1055            0.0000000000
      3164      1055  TIP3      H1             16.4783816386       14.7134343859      -13.1570546549  W2        1055            0.0000000000
      3165      1055  TIP3      H2             16.8331416386       14.0228043859      -11.8574246549  W2        1055            0.0000000000
      3166      1056  TIP3      OH2            19.6660016386       13.8737243859      -13.6761046549  W2        1056            0.0000000000
      3167      1056  TIP3      H1             18.8012216386       13.9455743859      -13.2720946549  W2        1056            0.0000000000
      3168      1056  TIP3      H2             19.6109016386       14.4204543859      -14.4598546549  W2        1056            0.0000000000
      3169      1057  TIP3      OH2            16.6135516386       12.8965843859      -15.7956446549  W2        1057            0.0000000000
      3170      1057  TIP3      H1             16.5951516386       12.4710943859      -14.9384146549  W2        1057            0.0000000000
      3171      1057  TIP3      H2             17.4183416386       12.5780843859      -16.2044246549  W2        1057            0.0000000000
      3172      1058  TIP3      OH2            18.7548616386       11.6064543859      -17.1406546549  W2        1058            0.0000000000
      3173      1058  TIP3      H1             18.5359316386       10.6901943859      -16.9710546549  W2        1058            0.0000000000
      3174      1058  TIP3      H2             19.5790816386       11.7464943859      -16.6745146549  W2        1058            0.0000000000
      3175      1059  TIP3      OH2            21.2921116386       12.0763843859      -16.2918546549  W2        1059            0.0000000000
      3176      1059  TIP3      H1             21.5046816386       11.1882843859      -16.5787646549  W2        1059            0.0000000000
      3177      1059  TIP3      H2             21.3566216386       12.0421543859      -15.3374546549  W2        1059            0.0000000000
      3178      1060  TIP3      OH2            17.1272316386       -3.6255256141      -19.3255346549  W2        1060            0.0000000000
      3179      1060  TIP3      H1             16.3502116386       -3.8600356141      -19.8329446549  W2        1060            0.0000000000
      3180      1060  TIP3      H2             17.6575916386       -4.4223156141      -19.3167346549  W2        1060            0.0000000000
      3181      1061  TIP3      OH2            15.9635716386       -3.8277156141      -23.5219246549  W2        1061            0.0000000000
      3182      1061  TIP3      H1             16.4026416386       -3.2166656141      -24.1135746549  W2        1061            0.0000000000
      3183      1061  TIP3      H2             15.3298116386       -3.2893056141      -23.0479246549  W2        1061            0.0000000000
      3184      1062  TIP3      OH2            21.7064916386       -3.6988156141      -19.5122246549  W2        1062            0.0000000000
      3185      1062  TIP3      H1             22.5808316386       -3.3103856141      -19.5417946549  W2        1062            0.0000000000
      3186      1062  TIP3      H2             21.5705716386       -3.9140356141      -18.5895046549  W2        1062            0.0000000000
      3187      1063  TIP3      OH2            15.8645216386       12.1205043859      -22.6244146549  W2        1063            0.0000000000
      3188      1063  TIP3      H1             15.1795116386       12.0823943859      -23.2919046549  W2        1063            0.0000000000
      3189      1063  TIP3      H2             15.8682416386       13.0332643859      -22.3362046549  W2        1063            0.0000000000
      3190      1064  TIP3      OH2            17.8244816386       -1.9115656141      -25.0795146549  W2        1064            0.0000000000
      3191      1064  TIP3      H1             18.3158216386       -2.5413256141      -25.6069646549  W2        1064            0.0000000000
      3192      1064  TIP3      H2             18.4481116386       -1.6156256141      -24.4163946549  W2        1064            0.0000000000
      3193      1065  TIP3      OH2            22.8504916386       -1.6184156141      -22.6224646549  W2        1065            0.0000000000
      3194      1065  TIP3      H1             23.0286216386       -2.2650956141      -21.9396046549  W2        1065            0.0000000000
      3195      1065  TIP3      H2             22.7971116386       -0.7846456141      -22.1553546549  W2        1065            0.0000000000
      3196      1066  TIP3      OH2            17.0850316386       -3.1113356141       -9.8079146549  W2        1066            0.0000000000
      3197      1066  TIP3      H1             16.7188516386       -3.8770756141       -9.3654446549  W2        1066            0.0000000000
      3198      1066  TIP3      H2             17.9978816386       -3.0823156141       -9.5214046549  W2        1066            0.0000000000
      3199      1067  TIP3      OH2            19.0581116386       -3.7608956141       -8.2722046549  W2        1067            0.0000000000
      3200      1067  TIP3      H1             19.9564716386       -4.0348756141       -8.4568646549  W2        1067            0.0000000000
      3201      1067  TIP3      H2             18.6714216386       -4.5032956141       -7.8079446549  W2        1067            0.0000000000
      3202      1068  TIP3      OH2            17.6826416386       13.0405843859      -25.5992046549  W2        1068            0.0000000000
      3203      1068  TIP3      H1             17.4151016386       13.3268743859      -24.7258946549  W2        1068            0.0000000000
      3204      1068  TIP3      H2             18.4539016386       12.4945043859      -25.4469546549  W2        1068            0.0000000000
      3205      1069  TIP3      OH2           -20.2048783614       23.2559843859      -14.3549746549  W2        1069            0.0000000000
      3206      1069  TIP3      H1            -20.1636683614       22.6303143859      -13.6317346549  W2        1069            0.0000000000
      3207      1069  TIP3      H2            -19.5021083614       23.8798443859      -14.1729346549  W2        1069            0.0000000000
      3208      1070  TIP3      OH2           -22.6715183614       21.3661343859      -20.4271846549  W2        1070            0.0000000000
      3209      1070  TIP3      H1            -23.1191783614       22.2120043859      -20.4455346549  W2        1070            0.0000000000
      3210      1070  TIP3      H2            -23.2323983614       20.7865543859      -20.9426746549  W2        1070            0.0000000000
      3211      1071  TIP3      OH2            -5.5209583614       17.6754443859      -14.6812446549  W2        1071            0.0000000000
      3212      1071  TIP3      H1             -5.4717383614       18.2855643859      -13.9453346549  W2        1071            0.0000000000
      3213      1071  TIP3      H2             -5.0954483614       18.1365343859      -15.4041346549  W2        1071            0.0000000000
      3214      1072  TIP3      OH2           -11.0432383614       20.4681543859      -15.2143846549  W2        1072            0.0000000000
      3215      1072  TIP3      H1            -10.9006483614       19.5218543859      -15.1942246549  W2        1072            0.0000000000
      3216      1072  TIP3      H2            -11.1493383614       20.6751343859      -16.1428946549  W2        1072            0.0000000000
      3217      1073  TIP3      OH2           -17.8884083614       18.5697943859      -17.9419046549  W2        1073            0.0000000000
      3218      1073  TIP3      H1            -17.8452983614       19.4296443859      -18.3602746549  W2        1073            0.0000000000
      3219      1073  TIP3      H2            -18.3459983614       18.0172643859      -18.5755846549  W2        1073            0.0000000000
      3220      1074  TIP3      OH2           -10.1661383614       18.7003543859      -19.5410746549  W2        1074            0.0000000000
      3221      1074  TIP3      H1             -9.5197083614       18.3716743859      -18.9163146549  W2        1074            0.0000000000
      3222      1074  TIP3      H2             -9.6561983614       19.2182543859      -20.1639346549  W2        1074            0.0000000000
      3223      1075  TIP3      OH2           -21.2682583614       20.9663743859      -17.1797646549  W2        1075            0.0000000000
      3224      1075  TIP3      H1            -20.6145983614       20.4165443859      -16.7477546549  W2        1075            0.0000000000
      3225      1075  TIP3      H2            -21.2443283614       20.6922743859      -18.0965646549  W2        1075            0.0000000000
      3226      1076  TIP3      OH2           -16.1118083614       22.5165043859      -17.9646146549  W2        1076            0.0000000000
      3227      1076  TIP3      H1            -15.4957083614       21.9900443859      -17.4552146549  W2        1076            0.0000000000
      3228      1076  TIP3      H2            -16.6979283614       21.8763743859      -18.3682546549  W2        1076            0.0000000000
      3229      1077  TIP3      OH2            -5.1294983614       19.1533643859      -12.4452646549  W2        1077            0.0000000000
      3230      1077  TIP3      H1             -5.8180383614       19.8114343859      -12.5406046549  W2        1077            0.0000000000
      3231      1077  TIP3      H2             -5.1140383614       18.9561543859      -11.5087246549  W2        1077            0.0000000000
      3232      1078  TIP3      OH2           -19.0782183614       17.4876343859      -13.8678246549  W2        1078            0.0000000000
      3233      1078  TIP3      H1            -19.2970483614       18.0176943859      -14.6342246549  W2        1078            0.0000000000
      3234      1078  TIP3      H2            -19.7461283614       17.7141843859      -13.2206846549  W2        1078            0.0000000000
      3235      1079  TIP3      OH2            -8.4022983614       17.9912843859      -17.5604846549  W2        1079            0.0000000000
      3236      1079  TIP3      H1             -8.6174983614       17.2256243859      -17.0278846549  W2        1079            0.0000000000
      3237      1079  TIP3      H2             -7.7465583614       18.4637443859      -17.0476346549  W2        1079            0.0000000000
      3238      1080  TIP3      OH2           -19.4844883614       19.3798143859      -15.9156046549  W2        1080            0.0000000000
      3239      1080  TIP3      H1            -18.8708583614       20.0125743859      -15.5423646549  W2        1080            0.0000000000
      3240      1080  TIP3      H2            -18.9724183614       18.9073143859      -16.5719146549  W2        1080            0.0000000000
      3241      1081  TIP3      OH2            -8.0548883614       16.7064143859      -13.8811346549  W2        1081            0.0000000000
      3242      1081  TIP3      H1             -8.7909683614       17.3171243859      -13.9190046549  W2        1081            0.0000000000
      3243      1081  TIP3      H2             -7.3714883614       17.1213143859      -14.4074946549  W2        1081            0.0000000000
      3244      1082  TIP3      OH2           -15.0517483614       14.7931443859      -16.4153346549  W2        1082            0.0000000000
      3245      1082  TIP3      H1            -15.1693283614       13.8447443859      -16.4695046549  W2        1082            0.0000000000
      3246      1082  TIP3      H2            -15.9067383614       15.1257543859      -16.1422246549  W2        1082            0.0000000000
      3247      1083  TIP3      OH2           -12.7313383614       22.0881343859      -24.8762546549  W2        1083            0.0000000000
      3248      1083  TIP3      H1            -12.0303483614       22.1108243859      -24.2248546549  W2        1083            0.0000000000
      3249      1083  TIP3      H2            -12.4290483614       21.4601043859      -25.5323246549  W2        1083            0.0000000000
      3250      1084  TIP3      OH2            -5.4158683614       23.0085543859      -13.6213146549  W2        1084            0.0000000000
      3251      1084  TIP3      H1             -6.0684583614       23.7031143859      -13.5322246549  W2        1084            0.0000000000
      3252      1084  TIP3      H2             -4.9508383614       23.2186443859      -14.4311546549  W2        1084            0.0000000000
      3253      1085  TIP3      OH2            -9.4821383614       22.0142943859      -11.8954646549  W2        1085            0.0000000000
      3254      1085  TIP3      H1             -9.4022283614       22.7777343859      -11.3236146549  W2        1085            0.0000000000
      3255      1085  TIP3      H2            -10.0833683614       22.2935343859      -12.5859546549  W2        1085            0.0000000000
      3256      1086  TIP3      OH2           -17.3675683614       23.2392143859      -15.4471646549  W2        1086            0.0000000000
      3257      1086  TIP3      H1            -16.8023183614       23.3606343859      -16.2100446549  W2        1086            0.0000000000
      3258      1086  TIP3      H2            -17.0486783614       23.8767143859      -14.8083146549  W2        1086            0.0000000000
      3259      1087  TIP3      OH2           -10.5085383614       23.0023243859      -23.2780446549  W2        1087            0.0000000000
      3260      1087  TIP3      H1             -9.9289883614       23.1523543859      -22.5311546549  W2        1087            0.0000000000
      3261      1087  TIP3      H2            -10.0945383614       23.4730643859      -24.0014046549  W2        1087            0.0000000000
      3262      1088  TIP3      OH2            -6.8096983614       14.7523643859      -23.4650746549  W2        1088            0.0000000000
      3263      1088  TIP3      H1             -7.7096283614       14.8912643859      -23.1700146549  W2        1088            0.0000000000
      3264      1088  TIP3      H2             -6.5578583614       15.5838243859      -23.8669046549  W2        1088            0.0000000000
      3265      1089  TIP3      OH2            -7.5507383614       20.8426043859       -9.6297946549  W2        1089            0.0000000000
      3266      1089  TIP3      H1             -7.9580583614       21.3231643859      -10.3504646549  W2        1089            0.0000000000
      3267      1089  TIP3      H2             -7.5101683614       19.9372043859       -9.9377146549  W2        1089            0.0000000000
      3268      1090  TIP3      OH2           -17.7829883614       15.6965943859      -15.6377046549  W2        1090            0.0000000000
      3269      1090  TIP3      H1            -18.6446183614       15.6094143859      -16.0454146549  W2        1090            0.0000000000
      3270      1090  TIP3      H2            -17.8054183614       16.5526043859      -15.2099446549  W2        1090            0.0000000000
      3271      1091  TIP3      OH2           -13.1202083614       15.4186343859      -12.2630046549  W2        1091            0.0000000000
      3272      1091  TIP3      H1            -12.6998983614       15.0033443859      -11.5099446549  W2        1091            0.0000000000
      3273      1091  TIP3      H2            -14.0532483614       15.2399643859      -12.1458046549  W2        1091            0.0000000000
      3274      1092  TIP3      OH2            -9.7937183614       19.1741543859      -11.4095546549  W2        1092            0.0000000000
      3275      1092  TIP3      H1            -10.3077683614       19.0483743859      -10.6119546549  W2        1092            0.0000000000
      3276      1092  TIP3      H2             -9.9492483614       20.0864643859      -11.6539346549  W2        1092            0.0000000000
      3277      1093  TIP3      OH2           -13.4584783614       17.9109743859      -24.9779246549  W2        1093            0.0000000000
      3278      1093  TIP3      H1            -13.7119983614       17.9301343859      -24.0551146549  W2        1093            0.0000000000
      3279      1093  TIP3      H2            -13.7152683614       17.0395143859      -25.2793046549  W2        1093            0.0000000000
      3280      1094  TIP3      OH2           -17.6919783614       20.6620443859      -14.5426846549  W2        1094            0.0000000000
      3281      1094  TIP3      H1            -18.3337683614       20.6217743859      -13.8336746549  W2        1094            0.0000000000
      3282      1094  TIP3      H2            -17.6547783614       21.5885143859      -14.7803846549  W2        1094            0.0000000000
      3283      1095  TIP3      OH2           -17.6950683614       20.8830543859      -19.6306846549  W2        1095            0.0000000000
      3284      1095  TIP3      H1            -18.5877783614       20.5426643859      -19.6893046549  W2        1095            0.0000000000
      3285      1095  TIP3      H2            -17.2444083614       20.5061443859      -20.3863646549  W2        1095            0.0000000000
      3286      1096  TIP3      OH2           -12.1595183614       21.2990843859      -20.8136046549  W2        1096            0.0000000000
      3287      1096  TIP3      H1            -12.5684883614       22.1139443859      -21.1051246549  W2        1096            0.0000000000
      3288      1096  TIP3      H2            -11.4388983614       21.1590943859      -21.4278946549  W2        1096            0.0000000000
      3289      1097  TIP3      OH2           -13.0573583614       21.4747243859       -9.3255346549  W2        1097            0.0000000000
      3290      1097  TIP3      H1            -13.6199783614       20.7698843859       -9.0047546549  W2        1097            0.0000000000
      3291      1097  TIP3      H2            -12.2310183614       21.3539143859       -8.8577746549  W2        1097            0.0000000000
      3292      1098  TIP3      OH2           -11.1547483614       20.7451243859      -17.9996346549  W2        1098            0.0000000000
      3293      1098  TIP3      H1            -11.3502983614       21.3508043859      -18.7145746549  W2        1098            0.0000000000
      3294      1098  TIP3      H2            -10.9734883614       19.9116443859      -18.4340046549  W2        1098            0.0000000000
      3295      1099  TIP3      OH2           -19.9419283614       20.9823943859      -12.6754846549  W2        1099            0.0000000000
      3296      1099  TIP3      H1            -19.9799883614       21.3825543859      -11.8067746549  W2        1099            0.0000000000
      3297      1099  TIP3      H2            -20.4328183614       20.1656343859      -12.5851946549  W2        1099            0.0000000000
      3298      1100  TIP3      OH2           -16.5761883614       18.3566243859      -25.8768846549  W2        1100            0.0000000000
      3299      1100  TIP3      H1            -17.0071183614       17.9116343859      -25.1471446549  W2        1100            0.0000000000
      3300      1100  TIP3      H2            -17.2943183614       18.7282543859      -26.3891346549  W2        1100            0.0000000000
      3301      1101  TIP3      OH2           -23.3338483614       18.0985743859      -18.8250146549  W2        1101            0.0000000000
      3302      1101  TIP3      H1            -22.7030783614       18.0697843859      -18.1056246549  W2        1101            0.0000000000
      3303      1101  TIP3      H2            -22.8844183614       17.6734443859      -19.5554246549  W2        1101            0.0000000000
      3304      1102  TIP3      OH2           -22.0596383614       18.8447743859      -23.4009746549  W2        1102            0.0000000000
      3305      1102  TIP3      H1            -21.5854683614       19.4357643859      -23.9858846549  W2        1102            0.0000000000
      3306      1102  TIP3      H2            -22.7769983614       19.3750643859      -23.0539646549  W2        1102            0.0000000000
      3307      1103  TIP3      OH2           -11.8908283614       22.3832543859      -13.3283946549  W2        1103            0.0000000000
      3308      1103  TIP3      H1            -11.5673483614       21.7522243859      -13.9713446549  W2        1103            0.0000000000
      3309      1103  TIP3      H2            -12.3308983614       21.8484743859      -12.6676546549  W2        1103            0.0000000000
      3310      1104  TIP3      OH2           -15.1135383614       18.3108043859      -18.5442746549  W2        1104            0.0000000000
      3311      1104  TIP3      H1            -16.0244283614       18.3674843859      -18.2556746549  W2        1104            0.0000000000
      3312      1104  TIP3      H2            -14.6082483614       18.2503543859      -17.7335546549  W2        1104            0.0000000000
      3313      1105  TIP3      OH2           -20.2851983614       19.9394343859      -19.7175146549  W2        1105            0.0000000000
      3314      1105  TIP3      H1            -21.1743983614       20.0389843859      -20.0575546549  W2        1105            0.0000000000
      3315      1105  TIP3      H2            -19.9887083614       19.0977343859      -20.0637246549  W2        1105            0.0000000000
      3316      1106  TIP3      OH2           -16.6320183614       19.9396943859      -22.0610546549  W2        1106            0.0000000000
      3317      1106  TIP3      H1            -15.7004683614       20.0686943859      -21.8827446549  W2        1106            0.0000000000
      3318      1106  TIP3      H2            -16.8469883614       20.6091243859      -22.7105846549  W2        1106            0.0000000000
      3319      1107  TIP3      OH2           -10.7083483614       17.5454343859      -15.2800946549  W2        1107            0.0000000000
      3320      1107  TIP3      H1            -11.3851883614       17.6767443859      -14.6161246549  W2        1107            0.0000000000
      3321      1107  TIP3      H2            -11.1938583614       17.3903843859      -16.0903246549  W2        1107            0.0000000000
      3322      1108  TIP3      OH2           -17.9579983614       21.1339143859      -24.4944446549  W2        1108            0.0000000000
      3323      1108  TIP3      H1            -18.5004883614       20.7542943859      -25.1856846549  W2        1108            0.0000000000
      3324      1108  TIP3      H2            -17.1245083614       21.3283843859      -24.9230346549  W2        1108            0.0000000000
      3325      1109  TIP3      OH2           -13.7935683614       21.0981043859      -16.6573146549  W2        1109            0.0000000000
      3326      1109  TIP3      H1            -13.2292283614       20.5517643859      -17.2043546549  W2        1109            0.0000000000
      3327      1109  TIP3      H2            -13.9412283614       20.5762943859      -15.8685546549  W2        1109            0.0000000000
      3328      1110  TIP3      OH2           -18.7915983614       17.2347143859      -20.2388346549  W2        1110            0.0000000000
      3329      1110  TIP3      H1            -19.1086483614       16.3322443859      -20.2742946549  W2        1110            0.0000000000
      3330      1110  TIP3      H2            -18.0101883614       17.2364543859      -20.7916746549  W2        1110            0.0000000000
      3331      1111  TIP3      OH2           -15.1669783614       19.4867143859      -14.2432746549  W2        1111            0.0000000000
      3332      1111  TIP3      H1            -16.0024483614       19.9406643859      -14.1330346549  W2        1111            0.0000000000
      3333      1111  TIP3      H2            -14.6429183614       19.7625643859      -13.4912846549  W2        1111            0.0000000000
      3334      1112  TIP3      OH2           -10.7250383614       18.5134743859      -24.3593746549  W2        1112            0.0000000000
      3335      1112  TIP3      H1            -11.6636183614       18.6250343859      -24.5104946549  W2        1112            0.0000000000
      3336      1112  TIP3      H2            -10.4278283614       19.3701643859      -24.0528046549  W2        1112            0.0000000000
      3337      1113  TIP3      OH2           -10.0066883614       20.3807443859      -22.6986346549  W2        1113            0.0000000000
      3338      1113  TIP3      H1             -9.1147883614       20.2432443859      -22.3795146549  W2        1113            0.0000000000
      3339      1113  TIP3      H2             -9.9503283614       21.1713543859      -23.2352846549  W2        1113            0.0000000000
      3340      1114  TIP3      OH2           -15.4734283614       22.9721643859       -9.2610246549  W2        1114            0.0000000000
      3341      1114  TIP3      H1            -15.7693483614       22.8064643859      -10.1561146549  W2        1114            0.0000000000
      3342      1114  TIP3      H2            -14.5419083614       22.7521943859       -9.2716346549  W2        1114            0.0000000000
      3343      1115  TIP3      OH2            -5.1218183614       20.5901543859      -23.0039646549  W2        1115            0.0000000000
      3344      1115  TIP3      H1             -5.6761883614       20.1939543859      -23.6762146549  W2        1115            0.0000000000
      3345      1115  TIP3      H2             -5.0214583614       21.5006743859      -23.2816346549  W2        1115            0.0000000000
      3346      1116  TIP3      OH2           -21.3681783614       23.3747143859      -24.7974546549  W2        1116            0.0000000000
      3347      1116  TIP3      H1            -20.7521883614       24.0014343859      -24.4179746549  W2        1116            0.0000000000
      3348      1116  TIP3      H2            -22.2299183614       23.6906943859      -24.5258046549  W2        1116            0.0000000000
      3349      1117  TIP3      OH2           -20.8559683614       18.2084443859      -11.9158546549  W2        1117            0.0000000000
      3350      1117  TIP3      H1            -21.7487383614       18.5469843859      -11.9834546549  W2        1117            0.0000000000
      3351      1117  TIP3      H2            -20.9546883614       17.3530543859      -11.4977746549  W2        1117            0.0000000000
      3352      1118  TIP3      OH2           -12.1216283614       17.9494743859      -13.0259946549  W2        1118            0.0000000000
      3353      1118  TIP3      H1            -11.4228383614       18.0233443859      -12.3760246549  W2        1118            0.0000000000
      3354      1118  TIP3      H2            -12.5024883614       17.0849743859      -12.8717046549  W2        1118            0.0000000000
      3355      1119  TIP3      OH2           -11.3371383614       17.6016443859      -21.9287646549  W2        1119            0.0000000000
      3356      1119  TIP3      H1            -11.1173083614       18.0731843859      -22.7322246549  W2        1119            0.0000000000
      3357      1119  TIP3      H2            -10.7787383614       17.9959043859      -21.2587046549  W2        1119            0.0000000000
      3358      1120  TIP3      OH2           -14.1371483614       19.3295243859      -21.0939246549  W2        1120            0.0000000000
      3359      1120  TIP3      H1            -13.3248883614       19.8338443859      -21.0477546549  W2        1120            0.0000000000
      3360      1120  TIP3      H2            -14.3818483614       19.1844943859      -20.1799646549  W2        1120            0.0000000000
      3361      1121  TIP3      OH2           -13.6015083614       20.3157943859      -11.9092646549  W2        1121            0.0000000000
      3362      1121  TIP3      H1            -13.4824783614       20.8893343859      -11.1522246549  W2        1121            0.0000000000
      3363      1121  TIP3      H2            -12.9460483614       19.6277343859      -11.7944846549  W2        1121            0.0000000000
      3364      1122  TIP3      OH2           -13.2534783614       16.4108243859      -20.1558146549  W2        1122            0.0000000000
      3365      1122  TIP3      H1            -13.6001283614       17.0278843859      -19.5113846549  W2        1122            0.0000000000
      3366      1122  TIP3      H2            -12.5947883614       16.9113943859      -20.6372646549  W2        1122            0.0000000000
      3367      1123  TIP3      OH2           -17.5957783614       17.4737643859      -23.4685646549  W2        1123            0.0000000000
      3368      1123  TIP3      H1            -17.6792983614       18.3620743859      -23.1219246549  W2        1123            0.0000000000
      3369      1123  TIP3      H2            -16.7057483614       17.2084343859      -23.2368846549  W2        1123            0.0000000000
      3370      1124  TIP3      OH2            -7.3969283614       18.2228243859      -11.0742946549  W2        1124            0.0000000000
      3371      1124  TIP3      H1             -8.3133483614       18.4849943859      -11.1619246549  W2        1124            0.0000000000
      3372      1124  TIP3      H2             -7.0614283614       18.2197243859      -11.9707646549  W2        1124            0.0000000000
      3373      1125  TIP3      OH2            -8.7948283614       21.9729243859      -16.9785646549  W2        1125            0.0000000000
      3374      1125  TIP3      H1             -9.5923883614       21.5579443859      -17.3070646549  W2        1125            0.0000000000
      3375      1125  TIP3      H2             -8.3497183614       21.2822943859      -16.4875146549  W2        1125            0.0000000000
      3376      1126  TIP3      OH2           -21.0213283614       20.5652843859      -25.2921746549  W2        1126            0.0000000000
      3377      1126  TIP3      H1            -21.0660683614       21.5045943859      -25.1134746549  W2        1126            0.0000000000
      3378      1126  TIP3      H2            -21.9090083614       20.3297743859      -25.5619646549  W2        1126            0.0000000000
      3379      1127  TIP3      OH2           -20.2131283614       15.3469443859      -16.6190746549  W2        1127            0.0000000000
      3380      1127  TIP3      H1            -20.4421483614       15.4061943859      -17.5465746549  W2        1127            0.0000000000
      3381      1127  TIP3      H2            -20.6557883614       14.5554943859      -16.3126646549  W2        1127            0.0000000000
      3382      1128  TIP3      OH2           -21.2548283614       22.9107643859       -8.7543346549  W2        1128            0.0000000000
      3383      1128  TIP3      H1            -20.8467083614       22.0534243859       -8.8752746549  W2        1128            0.0000000000
      3384      1128  TIP3      H2            -21.5150683614       22.9248943859       -7.8333046549  W2        1128            0.0000000000
      3385      1129  TIP3      OH2           -17.3077983614       21.9193343859      -11.3800446549  W2        1129            0.0000000000
      3386      1129  TIP3      H1            -17.9261883614       22.5939943859      -11.0995746549  W2        1129            0.0000000000
      3387      1129  TIP3      H2            -16.9636783614       22.2407243859      -12.2134246549  W2        1129            0.0000000000
      3388      1130  TIP3      OH2           -15.5256883614       22.2698043859      -25.4736846549  W2        1130            0.0000000000
      3389      1130  TIP3      H1            -15.7061883614       22.1149243859      -26.4008546549  W2        1130            0.0000000000
      3390      1130  TIP3      H2            -14.5756383614       22.3776743859      -25.4288946549  W2        1130            0.0000000000
      3391      1131  TIP3      OH2           -16.9684283614       19.2744143859      -10.2977346549  W2        1131            0.0000000000
      3392      1131  TIP3      H1            -16.8183383614       18.5455443859      -10.8997646549  W2        1131            0.0000000000
      3393      1131  TIP3      H2            -16.9661883614       20.0515843859      -10.8565146549  W2        1131            0.0000000000
      3394      1132  TIP3      OH2           -16.5558583614       17.6439943859      -12.8049946549  W2        1132            0.0000000000
      3395      1132  TIP3      H1            -16.0201083614       18.0956643859      -13.4570646549  W2        1132            0.0000000000
      3396      1132  TIP3      H2            -17.4078983614       17.5359743859      -13.2275846549  W2        1132            0.0000000000
      3397      1133  TIP3      OH2           -14.9740183614       23.0836143859      -12.5654746549  W2        1133            0.0000000000
      3398      1133  TIP3      H1            -14.2235383614       22.9273643859      -13.1386946549  W2        1133            0.0000000000
      3399      1133  TIP3      H2            -15.3131883614       23.9352743859      -12.8409246549  W2        1133            0.0000000000
      3400      1134  TIP3      OH2           -10.5583983614       20.8987943859       -7.5369446549  W2        1134            0.0000000000
      3401      1134  TIP3      H1            -10.3662683614       19.9677343859       -7.6484946549  W2        1134            0.0000000000
      3402      1134  TIP3      H2             -9.7007683614       21.3237443859       -7.5474046549  W2        1134            0.0000000000
      3403      1135  TIP3      OH2           -18.4897983614       20.4727643859       -8.3861746549  W2        1135            0.0000000000
      3404      1135  TIP3      H1            -19.2568983614       19.9402443859       -8.5964146549  W2        1135            0.0000000000
      3405      1135  TIP3      H2            -17.8108983614       20.1628043859       -8.9855446549  W2        1135            0.0000000000
      3406      1136  TIP3      OH2           -15.7503083614       15.1005643859      -12.3736346549  W2        1136            0.0000000000
      3407      1136  TIP3      H1            -15.8483483614       16.0468843859      -12.4790146549  W2        1136            0.0000000000
      3408      1136  TIP3      H2            -16.4926883614       14.7279443859      -12.8492846549  W2        1136            0.0000000000
      3409      1137  TIP3      OH2           -14.4862583614       19.4221043859       -8.8097946549  W2        1137            0.0000000000
      3410      1137  TIP3      H1            -14.7217183614       19.2027743859       -7.9083046549  W2        1137            0.0000000000
      3411      1137  TIP3      H2            -15.2695683614       19.2152243859       -9.3195446549  W2        1137            0.0000000000
      3412      1138  TIP3      OH2           -11.7705983614       18.5494543859       -9.7344446549  W2        1138            0.0000000000
      3413      1138  TIP3      H1            -12.7180583614       18.5814243859       -9.6021146549  W2        1138            0.0000000000
      3414      1138  TIP3      H2            -11.4579283614       17.9241643859       -9.0806246549  W2        1138            0.0000000000
      3415      1139  TIP3      OH2           -10.1364483614       17.1835643859       -7.7292546549  W2        1139            0.0000000000
      3416      1139  TIP3      H1            -10.2332683614       16.2312943859       -7.7350646549  W2        1139            0.0000000000
      3417      1139  TIP3      H2            -10.4581383614       17.4522443859       -6.8687046549  W2        1139            0.0000000000
      3418      1140  TIP3      OH2           -20.3095183614       18.3931443859       -8.6817046549  W2        1140            0.0000000000
      3419      1140  TIP3      H1            -20.0977783614       17.6867543859       -9.2919546549  W2        1140            0.0000000000
      3420      1140  TIP3      H2            -20.4207683614       17.9557443859       -7.8375846549  W2        1140            0.0000000000
      3421      1141  TIP3      OH2           -15.5284983614       14.3943043859       -9.7023546549  W2        1141            0.0000000000
      3422      1141  TIP3      H1            -14.8166583614       13.7545243859       -9.7164446549  W2        1141            0.0000000000
      3423      1141  TIP3      H2            -15.6294583614       14.6611343859      -10.6160446549  W2        1141            0.0000000000
      3424      1142  TIP3      OH2           -15.1747483614       16.0771443859       -7.6487246549  W2        1142            0.0000000000
      3425      1142  TIP3      H1            -15.3065283614       15.6015243859       -8.4688746549  W2        1142            0.0000000000
      3426      1142  TIP3      H2            -15.7740083614       16.8215043859       -7.7040146549  W2        1142            0.0000000000
      3427      1143  TIP3      OH2            -6.6658083614       20.6871843859      -25.2874246549  W2        1143            0.0000000000
      3428      1143  TIP3      H1             -6.5693683614       21.3538843859      -25.9674546549  W2        1143            0.0000000000
      3429      1143  TIP3      H2             -6.8058483614       19.8718143859      -25.7688746549  W2        1143            0.0000000000
      3430      1144  TIP3      OH2            -7.4963383614       22.0674243859      -19.6663946549  W2        1144            0.0000000000
      3431      1144  TIP3      H1             -7.6464583614       21.1222843859      -19.6866146549  W2        1144            0.0000000000
      3432      1144  TIP3      H2             -7.8498883614       22.3485643859      -18.8224846549  W2        1144            0.0000000000
      3433      1145  TIP3      OH2            -5.1433383614       21.9403343859       -9.3430246549  W2        1145            0.0000000000
      3434      1145  TIP3      H1             -6.0066683614       21.5615443859       -9.5085546549  W2        1145            0.0000000000
      3435      1145  TIP3      H2             -4.5389683614       21.2018143859       -9.4174446549  W2        1145            0.0000000000
      3436      1146  TIP3      OH2            -7.4184283614       18.0951643859      -26.1698746549  W2        1146            0.0000000000
      3437      1146  TIP3      H1             -6.8078483614       17.7238443859      -25.5330546549  W2        1146            0.0000000000
      3438      1146  TIP3      H2             -8.2552783614       17.6738543859      -25.9738746549  W2        1146            0.0000000000
      3439      1147  TIP3      OH2            -7.7858583614       19.6500043859      -21.2038846549  W2        1147            0.0000000000
      3440      1147  TIP3      H1             -7.5061483614       18.7430443859      -21.0797146549  W2        1147            0.0000000000
      3441      1147  TIP3      H2             -7.0266883614       20.0841543859      -21.5929646549  W2        1147            0.0000000000
      3442      1148  TIP3      OH2            -7.1740283614       20.2317443859      -15.7679946549  W2        1148            0.0000000000
      3443      1148  TIP3      H1             -6.2412283614       20.4437343859      -15.8023946549  W2        1148            0.0000000000
      3444      1148  TIP3      H2             -7.4092783614       20.3329543859      -14.8456946549  W2        1148            0.0000000000
      3445      1149  TIP3      OH2            -7.1448383614       20.9682743859      -12.9920546549  W2        1149            0.0000000000
      3446      1149  TIP3      H1             -7.9877083614       21.2363143859      -12.6260746549  W2        1149            0.0000000000
      3447      1149  TIP3      H2             -6.7024083614       21.7904643859      -13.2029446549  W2        1149            0.0000000000
      3448      1150  TIP3      OH2           -22.8636183614       19.4161443859       -9.5151346549  W2        1150            0.0000000000
      3449      1150  TIP3      H1            -21.9441283614       19.2939743859       -9.2788246549  W2        1150            0.0000000000
      3450      1150  TIP3      H2            -23.3131683614       18.6661143859       -9.1257846549  W2        1150            0.0000000000
      3451      1151  TIP3      OH2            -4.8616783614       14.9482943859       -7.6385546549  W2        1151            0.0000000000
      3452      1151  TIP3      H1             -4.5119783614       14.2946443859       -8.2440846549  W2        1151            0.0000000000
      3453      1151  TIP3      H2             -4.7147283614       15.7857043859       -8.0782946549  W2        1151            0.0000000000
      3454      1152  TIP3      OH2            -7.1723783614       16.9129343859      -21.1556846549  W2        1152            0.0000000000
      3455      1152  TIP3      H1             -6.9898783614       16.4640843859      -20.3301846549  W2        1152            0.0000000000
      3456      1152  TIP3      H2             -7.7720883614       16.3283743859      -21.6192246549  W2        1152            0.0000000000
      3457      1153  TIP3      OH2           -21.6423683614       17.7283043859      -16.6238446549  W2        1153            0.0000000000
      3458      1153  TIP3      H1            -21.1972083614       16.9365543859      -16.3218746549  W2        1153            0.0000000000
      3459      1153  TIP3      H2            -21.1760683614       18.4448243859      -16.1932846549  W2        1153            0.0000000000
      3460      1154  TIP3      OH2           -23.3383383614       20.7276043859      -15.5548246549  W2        1154            0.0000000000
      3461      1154  TIP3      H1            -22.8463583614       20.5066543859      -16.3456246549  W2        1154            0.0000000000
      3462      1154  TIP3      H2            -22.9762483614       21.5679443859      -15.2738746549  W2        1154            0.0000000000
      3463      1155  TIP3      OH2            -5.3419583614       17.0577543859       -9.2894246549  W2        1155            0.0000000000
      3464      1155  TIP3      H1             -6.2593883614       17.3284643859       -9.3250746549  W2        1155            0.0000000000
      3465      1155  TIP3      H2             -5.2190183614       16.5225943859      -10.0734546549  W2        1155            0.0000000000
      3466      1156  TIP3      OH2            -5.3057583614       16.9807443859      -24.6276546549  W2        1156            0.0000000000
      3467      1156  TIP3      H1             -4.8934983614       16.2593143859      -25.1028546549  W2        1156            0.0000000000
      3468      1156  TIP3      H2             -4.6241083614       17.6502043859      -24.5692246549  W2        1156            0.0000000000
      3469      1157  TIP3      OH2           -23.0246883614       16.9855143859      -21.5005846549  W2        1157            0.0000000000
      3470      1157  TIP3      H1            -23.9498483614       17.1941743859      -21.6300346549  W2        1157            0.0000000000
      3471      1157  TIP3      H2            -22.5706983614       17.4695943859      -22.1903546549  W2        1157            0.0000000000
      3472      1158  TIP3      OH2           -23.0611483614       15.7234143859      -13.1563346549  W2        1158            0.0000000000
      3473      1158  TIP3      H1            -23.7260983614       15.4774443859      -12.5132446549  W2        1158            0.0000000000
      3474      1158  TIP3      H2            -23.5040183614       16.3454543859      -13.7335346549  W2        1158            0.0000000000
      3475      1159  TIP3      OH2            -6.3413683614       15.1473843859      -11.4703446549  W2        1159            0.0000000000
      3476      1159  TIP3      H1             -7.1540183614       15.4724143859      -11.8578746549  W2        1159            0.0000000000
      3477      1159  TIP3      H2             -6.1085183614       14.3872343859      -12.0034346549  W2        1159            0.0000000000
      3478      1160  TIP3      OH2           -12.9115183614       16.5964443859      -17.1475246549  W2        1160            0.0000000000
      3479      1160  TIP3      H1            -13.5858383614       15.9670043859      -16.8919446549  W2        1160            0.0000000000
      3480      1160  TIP3      H2            -12.3475983614       16.1123343859      -17.7507346549  W2        1160            0.0000000000
      3481      1161  TIP3      OH2            -7.7687983614       14.7038443859      -17.0348146549  W2        1161            0.0000000000
      3482      1161  TIP3      H1             -7.1650383614       15.2513843859      -17.5367146549  W2        1161            0.0000000000
      3483      1161  TIP3      H2             -8.6385983614       15.0228843859      -17.2754046549  W2        1161            0.0000000000
      3484      1162  TIP3      OH2            -6.0417583614       15.8427143859      -18.7017246549  W2        1162            0.0000000000
      3485      1162  TIP3      H1             -5.4300083614       15.3282843859      -19.2283646549  W2        1162            0.0000000000
      3486      1162  TIP3      H2             -5.6594183614       16.7199243859      -18.6782846549  W2        1162            0.0000000000
      3487      1163  TIP3      OH2           -20.5847683614       15.2304743859      -19.3255346549  W2        1163            0.0000000000
      3488      1163  TIP3      H1            -21.3617883614       14.9959643859      -19.8329446549  W2        1163            0.0000000000
      3489      1163  TIP3      H2            -20.0544083614       14.4336843859      -19.3167346549  W2        1163            0.0000000000
      3490      1164  TIP3      OH2           -21.7484283614       15.0282843859      -23.5219246549  W2        1164            0.0000000000
      3491      1164  TIP3      H1            -21.3093583614       15.6393343859      -24.1135746549  W2        1164            0.0000000000
      3492      1164  TIP3      H2            -22.3821883614       15.5666943859      -23.0479246549  W2        1164            0.0000000000
      3493      1165  TIP3      OH2           -16.0055083614       15.1571843859      -19.5122246549  W2        1165            0.0000000000
      3494      1165  TIP3      H1            -15.1311683614       15.5456143859      -19.5417946549  W2        1165            0.0000000000
      3495      1165  TIP3      H2            -16.1414283614       14.9419643859      -18.5895046549  W2        1165            0.0000000000
      3496      1166  TIP3      OH2           -10.4486683614       15.1871643859      -17.8630546549  W2        1166            0.0000000000
      3497      1166  TIP3      H1            -10.3725083614       15.2823243859      -18.8124546549  W2        1166            0.0000000000
      3498      1166  TIP3      H2            -10.7237483614       14.2794543859      -17.7341446549  W2        1166            0.0000000000
      3499      1167  TIP3      OH2            -9.0954083614       15.2129443859      -22.1705546549  W2        1167            0.0000000000
      3500      1167  TIP3      H1             -9.7982983614       15.8278643859      -22.3804146549  W2        1167            0.0000000000
      3501      1167  TIP3      H2             -9.5402683614       14.3756143859      -22.0394646549  W2        1167            0.0000000000
      3502      1168  TIP3      OH2           -19.8875183614       16.9444343859      -25.0795146549  W2        1168            0.0000000000
      3503      1168  TIP3      H1            -19.3961783614       16.3146743859      -25.6069646549  W2        1168            0.0000000000
      3504      1168  TIP3      H2            -19.2638883614       17.2403743859      -24.4163946549  W2        1168            0.0000000000
      3505      1169  TIP3      OH2           -14.8615083614       17.2375843859      -22.6224646549  W2        1169            0.0000000000
      3506      1169  TIP3      H1            -14.6833783614       16.5909043859      -21.9396046549  W2        1169            0.0000000000
      3507      1169  TIP3      H2            -14.9148883614       18.0713543859      -22.1553546549  W2        1169            0.0000000000
      3508      1170  TIP3      OH2           -20.6269683614       15.7446643859       -9.8079146549  W2        1170            0.0000000000
      3509      1170  TIP3      H1            -20.9931483614       14.9789243859       -9.3654446549  W2        1170            0.0000000000
      3510      1170  TIP3      H2            -19.7141183614       15.7736843859       -9.5214046549  W2        1170            0.0000000000
      3511      1171  TIP3      OH2           -18.6538883614       15.0951043859       -8.2722046549  W2        1171            0.0000000000
      3512      1171  TIP3      H1            -17.7555283614       14.8211243859       -8.4568646549  W2        1171            0.0000000000
      3513      1171  TIP3      H2            -19.0405783614       14.3527043859       -7.8079446549  W2        1171            0.0000000000
      3514      1172  TIP3      OH2           -10.2326583614       14.4276343859       -8.0899246549  W2        1172            0.0000000000
      3515      1172  TIP3      H1            -10.1559383614       14.0017043859       -7.2361546549  W2        1172            0.0000000000
      3516      1172  TIP3      H2             -9.3389983614       14.4411043859       -8.4325746549  W2        1172            0.0000000000
      3517      1173  TIP3      OH2            -1.3488783614       23.2559843859      -14.3549746549  W2        1173            0.0000000000
      3518      1173  TIP3      H1             -1.3076683614       22.6303143859      -13.6317346549  W2        1173            0.0000000000
      3519      1173  TIP3      H2             -0.6461083614       23.8798443859      -14.1729346549  W2        1173            0.0000000000
      3520      1174  TIP3      OH2            -3.8155183614       21.3661343859      -20.4271846549  W2        1174            0.0000000000
      3521      1174  TIP3      H1             -4.2631783614       22.2120043859      -20.4455346549  W2        1174            0.0000000000
      3522      1174  TIP3      H2             -4.3763983614       20.7865543859      -20.9426746549  W2        1174            0.0000000000
      3523      1175  TIP3      OH2            13.3350416386       17.6754443859      -14.6812446549  W2        1175            0.0000000000
      3524      1175  TIP3      H1             13.3842616386       18.2855643859      -13.9453346549  W2        1175            0.0000000000
      3525      1175  TIP3      H2             13.7605516386       18.1365343859      -15.4041346549  W2        1175            0.0000000000
      3526      1176  TIP3      OH2             7.8127616386       20.4681543859      -15.2143846549  W2        1176            0.0000000000
      3527      1176  TIP3      H1              7.9553516386       19.5218543859      -15.1942246549  W2        1176            0.0000000000
      3528      1176  TIP3      H2              7.7066616386       20.6751343859      -16.1428946549  W2        1176            0.0000000000
      3529      1177  TIP3      OH2             0.9675916386       18.5697943859      -17.9419046549  W2        1177            0.0000000000
      3530      1177  TIP3      H1              1.0107016386       19.4296443859      -18.3602746549  W2        1177            0.0000000000
      3531      1177  TIP3      H2              0.5100016386       18.0172643859      -18.5755846549  W2        1177            0.0000000000
      3532      1178  TIP3      OH2             8.6898616386       18.7003543859      -19.5410746549  W2        1178            0.0000000000
      3533      1178  TIP3      H1              9.3362916386       18.3716743859      -18.9163146549  W2        1178            0.0000000000
      3534      1178  TIP3      H2              9.1998016386       19.2182543859      -20.1639346549  W2        1178            0.0000000000
      3535      1179  TIP3      OH2            -2.4122583614       20.9663743859      -17.1797646549  W2        1179            0.0000000000
      3536      1179  TIP3      H1             -1.7585983614       20.4165443859      -16.7477546549  W2        1179            0.0000000000
      3537      1179  TIP3      H2             -2.3883283614       20.6922743859      -18.0965646549  W2        1179            0.0000000000
      3538      1180  TIP3      OH2             2.7441916386       22.5165043859      -17.9646146549  W2        1180            0.0000000000
      3539      1180  TIP3      H1              3.3602916386       21.9900443859      -17.4552146549  W2        1180            0.0000000000
      3540      1180  TIP3      H2              2.1580716386       21.8763743859      -18.3682546549  W2        1180            0.0000000000
      3541      1181  TIP3      OH2            13.7265016386       19.1533643859      -12.4452646549  W2        1181            0.0000000000
      3542      1181  TIP3      H1             13.0379616386       19.8114343859      -12.5406046549  W2        1181            0.0000000000
      3543      1181  TIP3      H2             13.7419616386       18.9561543859      -11.5087246549  W2        1181            0.0000000000
      3544      1182  TIP3      OH2            -0.2222183614       17.4876343859      -13.8678246549  W2        1182            0.0000000000
      3545      1182  TIP3      H1             -0.4410483614       18.0176943859      -14.6342246549  W2        1182            0.0000000000
      3546      1182  TIP3      H2             -0.8901283614       17.7141843859      -13.2206846549  W2        1182            0.0000000000
      3547      1183  TIP3      OH2            10.4537016386       17.9912843859      -17.5604846549  W2        1183            0.0000000000
      3548      1183  TIP3      H1             10.2385016386       17.2256243859      -17.0278846549  W2        1183            0.0000000000
      3549      1183  TIP3      H2             11.1094416386       18.4637443859      -17.0476346549  W2        1183            0.0000000000
      3550      1184  TIP3      OH2            -0.6284883614       19.3798143859      -15.9156046549  W2        1184            0.0000000000
      3551      1184  TIP3      H1             -0.0148583614       20.0125743859      -15.5423646549  W2        1184            0.0000000000
      3552      1184  TIP3      H2             -0.1164183614       18.9073143859      -16.5719146549  W2        1184            0.0000000000
      3553      1185  TIP3      OH2            10.8011116386       16.7064143859      -13.8811346549  W2        1185            0.0000000000
      3554      1185  TIP3      H1             10.0650316386       17.3171243859      -13.9190046549  W2        1185            0.0000000000
      3555      1185  TIP3      H2             11.4845116386       17.1213143859      -14.4074946549  W2        1185            0.0000000000
      3556      1186  TIP3      OH2             3.8042516386       14.7931443859      -16.4153346549  W2        1186            0.0000000000
      3557      1186  TIP3      H1              3.6866716386       13.8447443859      -16.4695046549  W2        1186            0.0000000000
      3558      1186  TIP3      H2              2.9492616386       15.1257543859      -16.1422246549  W2        1186            0.0000000000
      3559      1187  TIP3      OH2             6.1246616386       22.0881343859      -24.8762546549  W2        1187            0.0000000000
      3560      1187  TIP3      H1              6.8256516386       22.1108243859      -24.2248546549  W2        1187            0.0000000000
      3561      1187  TIP3      H2              6.4269516386       21.4601043859      -25.5323246549  W2        1187            0.0000000000
      3562      1188  TIP3      OH2            13.4401316386       23.0085543859      -13.6213146549  W2        1188            0.0000000000
      3563      1188  TIP3      H1             12.7875416386       23.7031143859      -13.5322246549  W2        1188            0.0000000000
      3564      1188  TIP3      H2             13.9051616386       23.2186443859      -14.4311546549  W2        1188            0.0000000000
      3565      1189  TIP3      OH2             9.3738616386       22.0142943859      -11.8954646549  W2        1189            0.0000000000
      3566      1189  TIP3      H1              9.4537716386       22.7777343859      -11.3236146549  W2        1189            0.0000000000
      3567      1189  TIP3      H2              8.7726316386       22.2935343859      -12.5859546549  W2        1189            0.0000000000
      3568      1190  TIP3      OH2             1.4884316386       23.2392143859      -15.4471646549  W2        1190            0.0000000000
      3569      1190  TIP3      H1              2.0536816386       23.3606343859      -16.2100446549  W2        1190            0.0000000000
      3570      1190  TIP3      H2              1.8073216386       23.8767143859      -14.8083146549  W2        1190            0.0000000000
      3571      1191  TIP3      OH2             8.3474616386       23.0023243859      -23.2780446549  W2        1191            0.0000000000
      3572      1191  TIP3      H1              8.9270116386       23.1523543859      -22.5311546549  W2        1191            0.0000000000
      3573      1191  TIP3      H2              8.7614616386       23.4730643859      -24.0014046549  W2        1191            0.0000000000
      3574      1192  TIP3      OH2            12.0463016386       14.7523643859      -23.4650746549  W2        1192            0.0000000000
      3575      1192  TIP3      H1             11.1463716386       14.8912643859      -23.1700146549  W2        1192            0.0000000000
      3576      1192  TIP3      H2             12.2981416386       15.5838243859      -23.8669046549  W2        1192            0.0000000000
      3577      1193  TIP3      OH2            11.3052616386       20.8426043859       -9.6297946549  W2        1193            0.0000000000
      3578      1193  TIP3      H1             10.8979416386       21.3231643859      -10.3504646549  W2        1193            0.0000000000
      3579      1193  TIP3      H2             11.3458316386       19.9372043859       -9.9377146549  W2        1193            0.0000000000
      3580      1194  TIP3      OH2             1.0730116386       15.6965943859      -15.6377046549  W2        1194            0.0000000000
      3581      1194  TIP3      H1              0.2113816386       15.6094143859      -16.0454146549  W2        1194            0.0000000000
      3582      1194  TIP3      H2              1.0505816386       16.5526043859      -15.2099446549  W2        1194            0.0000000000
      3583      1195  TIP3      OH2             5.7357916386       15.4186343859      -12.2630046549  W2        1195            0.0000000000
      3584      1195  TIP3      H1              6.1561016386       15.0033443859      -11.5099446549  W2        1195            0.0000000000
      3585      1195  TIP3      H2              4.8027516386       15.2399643859      -12.1458046549  W2        1195            0.0000000000
      3586      1196  TIP3      OH2             9.0622816386       19.1741543859      -11.4095546549  W2        1196            0.0000000000
      3587      1196  TIP3      H1              8.5482316386       19.0483743859      -10.6119546549  W2        1196            0.0000000000
      3588      1196  TIP3      H2              8.9067516386       20.0864643859      -11.6539346549  W2        1196            0.0000000000
      3589      1197  TIP3      OH2             5.3975216386       17.9109743859      -24.9779246549  W2        1197            0.0000000000
      3590      1197  TIP3      H1              5.1440016386       17.9301343859      -24.0551146549  W2        1197            0.0000000000
      3591      1197  TIP3      H2              5.1407316386       17.0395143859      -25.2793046549  W2        1197            0.0000000000
      3592      1198  TIP3      OH2             1.1640216386       20.6620443859      -14.5426846549  W2        1198            0.0000000000
      3593      1198  TIP3      H1              0.5222316386       20.6217743859      -13.8336746549  W2        1198            0.0000000000
      3594      1198  TIP3      H2              1.2012216386       21.5885143859      -14.7803846549  W2        1198            0.0000000000
      3595      1199  TIP3      OH2             1.1609316386       20.8830543859      -19.6306846549  W2        1199            0.0000000000
      3596      1199  TIP3      H1              0.2682216386       20.5426643859      -19.6893046549  W2        1199            0.0000000000
      3597      1199  TIP3      H2              1.6115916386       20.5061443859      -20.3863646549  W2        1199            0.0000000000
      3598      1200  TIP3      OH2             6.6964816386       21.2990843859      -20.8136046549  W2        1200            0.0000000000
      3599      1200  TIP3      H1              6.2875116386       22.1139443859      -21.1051246549  W2        1200            0.0000000000
      3600      1200  TIP3      H2              7.4171016386       21.1590943859      -21.4278946549  W2        1200            0.0000000000
      3601      1201  TIP3      OH2             5.7986416386       21.4747243859       -9.3255346549  W2        1201            0.0000000000
      3602      1201  TIP3      H1              5.2360216386       20.7698843859       -9.0047546549  W2        1201            0.0000000000
      3603      1201  TIP3      H2              6.6249816386       21.3539143859       -8.8577746549  W2        1201            0.0000000000
      3604      1202  TIP3      OH2             7.7012516386       20.7451243859      -17.9996346549  W2        1202            0.0000000000
      3605      1202  TIP3      H1              7.5057016386       21.3508043859      -18.7145746549  W2        1202            0.0000000000
      3606      1202  TIP3      H2              7.8825116386       19.9116443859      -18.4340046549  W2        1202            0.0000000000
      3607      1203  TIP3      OH2            -1.0859283614       20.9823943859      -12.6754846549  W2        1203            0.0000000000
      3608      1203  TIP3      H1             -1.1239883614       21.3825543859      -11.8067746549  W2        1203            0.0000000000
      3609      1203  TIP3      H2             -1.5768183614       20.1656343859      -12.5851946549  W2        1203            0.0000000000
      3610      1204  TIP3      OH2             2.2798116386       18.3566243859      -25.8768846549  W2        1204            0.0000000000
      3611      1204  TIP3      H1              1.8488816386       17.9116343859      -25.1471446549  W2        1204            0.0000000000
      3612      1204  TIP3      H2              1.5616816386       18.7282543859      -26.3891346549  W2        1204            0.0000000000
      3613      1205  TIP3      OH2            -4.4778483614       18.0985743859      -18.8250146549  W2        1205            0.0000000000
      3614      1205  TIP3      H1             -3.8470783614       18.0697843859      -18.1056246549  W2        1205            0.0000000000
      3615      1205  TIP3      H2             -4.0284183614       17.6734443859      -19.5554246549  W2        1205            0.0000000000
      3616      1206  TIP3      OH2            -3.2036383614       18.8447743859      -23.4009746549  W2        1206            0.0000000000
      3617      1206  TIP3      H1             -2.7294683614       19.4357643859      -23.9858846549  W2        1206            0.0000000000
      3618      1206  TIP3      H2             -3.9209983614       19.3750643859      -23.0539646549  W2        1206            0.0000000000
      3619      1207  TIP3      OH2             6.9651716386       22.3832543859      -13.3283946549  W2        1207            0.0000000000
      3620      1207  TIP3      H1              7.2886516386       21.7522243859      -13.9713446549  W2        1207            0.0000000000
      3621      1207  TIP3      H2              6.5251016386       21.8484743859      -12.6676546549  W2        1207            0.0000000000
      3622      1208  TIP3      OH2             3.7424616386       18.3108043859      -18.5442746549  W2        1208            0.0000000000
      3623      1208  TIP3      H1              2.8315716386       18.3674843859      -18.2556746549  W2        1208            0.0000000000
      3624      1208  TIP3      H2              4.2477516386       18.2503543859      -17.7335546549  W2        1208            0.0000000000
      3625      1209  TIP3      OH2            -1.4291983614       19.9394343859      -19.7175146549  W2        1209            0.0000000000
      3626      1209  TIP3      H1             -2.3183983614       20.0389843859      -20.0575546549  W2        1209            0.0000000000
      3627      1209  TIP3      H2             -1.1327083614       19.0977343859      -20.0637246549  W2        1209            0.0000000000
      3628      1210  TIP3      OH2             2.2239816386       19.9396943859      -22.0610546549  W2        1210            0.0000000000
      3629      1210  TIP3      H1              3.1555316386       20.0686943859      -21.8827446549  W2        1210            0.0000000000
      3630      1210  TIP3      H2              2.0090116386       20.6091243859      -22.7105846549  W2        1210            0.0000000000
      3631      1211  TIP3      OH2             8.1476516386       17.5454343859      -15.2800946549  W2        1211            0.0000000000
      3632      1211  TIP3      H1              7.4708116386       17.6767443859      -14.6161246549  W2        1211            0.0000000000
      3633      1211  TIP3      H2              7.6621416386       17.3903843859      -16.0903246549  W2        1211            0.0000000000
      3634      1212  TIP3      OH2             0.8980016386       21.1339143859      -24.4944446549  W2        1212            0.0000000000
      3635      1212  TIP3      H1              0.3555116386       20.7542943859      -25.1856846549  W2        1212            0.0000000000
      3636      1212  TIP3      H2              1.7314916386       21.3283843859      -24.9230346549  W2        1212            0.0000000000
      3637      1213  TIP3      OH2             5.0624316386       21.0981043859      -16.6573146549  W2        1213            0.0000000000
      3638      1213  TIP3      H1              5.6267716386       20.5517643859      -17.2043546549  W2        1213            0.0000000000
      3639      1213  TIP3      H2              4.9147716386       20.5762943859      -15.8685546549  W2        1213            0.0000000000
      3640      1214  TIP3      OH2             0.0644016386       17.2347143859      -20.2388346549  W2        1214            0.0000000000
      3641      1214  TIP3      H1             -0.2526483614       16.3322443859      -20.2742946549  W2        1214            0.0000000000
      3642      1214  TIP3      H2              0.8458116386       17.2364543859      -20.7916746549  W2        1214            0.0000000000
      3643      1215  TIP3      OH2             3.6890216386       19.4867143859      -14.2432746549  W2        1215            0.0000000000
      3644      1215  TIP3      H1              2.8535516386       19.9406643859      -14.1330346549  W2        1215            0.0000000000
      3645      1215  TIP3      H2              4.2130816386       19.7625643859      -13.4912846549  W2        1215            0.0000000000
      3646      1216  TIP3      OH2             8.1309616386       18.5134743859      -24.3593746549  W2        1216            0.0000000000
      3647      1216  TIP3      H1              7.1923816386       18.6250343859      -24.5104946549  W2        1216            0.0000000000
      3648      1216  TIP3      H2              8.4281716386       19.3701643859      -24.0528046549  W2        1216            0.0000000000
      3649      1217  TIP3      OH2             8.8493116386       20.3807443859      -22.6986346549  W2        1217            0.0000000000
      3650      1217  TIP3      H1              9.7412116386       20.2432443859      -22.3795146549  W2        1217            0.0000000000
      3651      1217  TIP3      H2              8.9056716386       21.1713543859      -23.2352846549  W2        1217            0.0000000000
      3652      1218  TIP3      OH2             3.3825716386       22.9721643859       -9.2610246549  W2        1218            0.0000000000
      3653      1218  TIP3      H1              3.0866516386       22.8064643859      -10.1561146549  W2        1218            0.0000000000
      3654      1218  TIP3      H2              4.3140916386       22.7521943859       -9.2716346549  W2        1218            0.0000000000
      3655      1219  TIP3      OH2            13.7341816386       20.5901543859      -23.0039646549  W2        1219            0.0000000000
      3656      1219  TIP3      H1             13.1798116386       20.1939543859      -23.6762146549  W2        1219            0.0000000000
      3657      1219  TIP3      H2             13.8345416386       21.5006743859      -23.2816346549  W2        1219            0.0000000000
      3658      1220  TIP3      OH2            -2.5121783614       23.3747143859      -24.7974546549  W2        1220            0.0000000000
      3659      1220  TIP3      H1             -1.8961883614       24.0014343859      -24.4179746549  W2        1220            0.0000000000
      3660      1220  TIP3      H2             -3.3739183614       23.6906943859      -24.5258046549  W2        1220            0.0000000000
      3661      1221  TIP3      OH2            -1.9999683614       18.2084443859      -11.9158546549  W2        1221            0.0000000000
      3662      1221  TIP3      H1             -2.8927383614       18.5469843859      -11.9834546549  W2        1221            0.0000000000
      3663      1221  TIP3      H2             -2.0986883614       17.3530543859      -11.4977746549  W2        1221            0.0000000000
      3664      1222  TIP3      OH2             6.7343716386       17.9494743859      -13.0259946549  W2        1222            0.0000000000
      3665      1222  TIP3      H1              7.4331616386       18.0233443859      -12.3760246549  W2        1222            0.0000000000
      3666      1222  TIP3      H2              6.3535116386       17.0849743859      -12.8717046549  W2        1222            0.0000000000
      3667      1223  TIP3      OH2             7.5188616386       17.6016443859      -21.9287646549  W2        1223            0.0000000000
      3668      1223  TIP3      H1              7.7386916386       18.0731843859      -22.7322246549  W2        1223            0.0000000000
      3669      1223  TIP3      H2              8.0772616386       17.9959043859      -21.2587046549  W2        1223            0.0000000000
      3670      1224  TIP3      OH2             4.7188516386       19.3295243859      -21.0939246549  W2        1224            0.0000000000
      3671      1224  TIP3      H1              5.5311116386       19.8338443859      -21.0477546549  W2        1224            0.0000000000
      3672      1224  TIP3      H2              4.4741516386       19.1844943859      -20.1799646549  W2        1224            0.0000000000
      3673      1225  TIP3      OH2             5.2544916386       20.3157943859      -11.9092646549  W2        1225            0.0000000000
      3674      1225  TIP3      H1              5.3735216386       20.8893343859      -11.1522246549  W2        1225            0.0000000000
      3675      1225  TIP3      H2              5.9099516386       19.6277343859      -11.7944846549  W2        1225            0.0000000000
      3676      1226  TIP3      OH2             5.6025216386       16.4108243859      -20.1558146549  W2        1226            0.0000000000
      3677      1226  TIP3      H1              5.2558716386       17.0278843859      -19.5113846549  W2        1226            0.0000000000
      3678      1226  TIP3      H2              6.2612116386       16.9113943859      -20.6372646549  W2        1226            0.0000000000
      3679      1227  TIP3      OH2             1.2602216386       17.4737643859      -23.4685646549  W2        1227            0.0000000000
      3680      1227  TIP3      H1              1.1767016386       18.3620743859      -23.1219246549  W2        1227            0.0000000000
      3681      1227  TIP3      H2              2.1502516386       17.2084343859      -23.2368846549  W2        1227            0.0000000000
      3682      1228  TIP3      OH2            11.4590716386       18.2228243859      -11.0742946549  W2        1228            0.0000000000
      3683      1228  TIP3      H1             10.5426516386       18.4849943859      -11.1619246549  W2        1228            0.0000000000
      3684      1228  TIP3      H2             11.7945716386       18.2197243859      -11.9707646549  W2        1228            0.0000000000
      3685      1229  TIP3      OH2            10.0611716386       21.9729243859      -16.9785646549  W2        1229            0.0000000000
      3686      1229  TIP3      H1              9.2636116386       21.5579443859      -17.3070646549  W2        1229            0.0000000000
      3687      1229  TIP3      H2             10.5062816386       21.2822943859      -16.4875146549  W2        1229            0.0000000000
      3688      1230  TIP3      OH2            -2.1653283614       20.5652843859      -25.2921746549  W2        1230            0.0000000000
      3689      1230  TIP3      H1             -2.2100683614       21.5045943859      -25.1134746549  W2        1230            0.0000000000
      3690      1230  TIP3      H2             -3.0530083614       20.3297743859      -25.5619646549  W2        1230            0.0000000000
      3691      1231  TIP3      OH2            -1.3571283614       15.3469443859      -16.6190746549  W2        1231            0.0000000000
      3692      1231  TIP3      H1             -1.5861483614       15.4061943859      -17.5465746549  W2        1231            0.0000000000
      3693      1231  TIP3      H2             -1.7997883614       14.5554943859      -16.3126646549  W2        1231            0.0000000000
      3694      1232  TIP3      OH2            -2.3988283614       22.9107643859       -8.7543346549  W2        1232            0.0000000000
      3695      1232  TIP3      H1             -1.9907083614       22.0534243859       -8.8752746549  W2        1232            0.0000000000
      3696      1232  TIP3      H2             -2.6590683614       22.9248943859       -7.8333046549  W2        1232            0.0000000000
      3697      1233  TIP3      OH2             1.5482016386       21.9193343859      -11.3800446549  W2        1233            0.0000000000
      3698      1233  TIP3      H1              0.9298116386       22.5939943859      -11.0995746549  W2        1233            0.0000000000
      3699      1233  TIP3      H2              1.8923216386       22.2407243859      -12.2134246549  W2        1233            0.0000000000
      3700      1234  TIP3      OH2             3.3303116386       22.2698043859      -25.4736846549  W2        1234            0.0000000000
      3701      1234  TIP3      H1              3.1498116386       22.1149243859      -26.4008546549  W2        1234            0.0000000000
      3702      1234  TIP3      H2              4.2803616386       22.3776743859      -25.4288946549  W2        1234            0.0000000000
      3703      1235  TIP3      OH2             1.8875716386       19.2744143859      -10.2977346549  W2        1235            0.0000000000
      3704      1235  TIP3      H1              2.0376616386       18.5455443859      -10.8997646549  W2        1235            0.0000000000
      3705      1235  TIP3      H2              1.8898116386       20.0515843859      -10.8565146549  W2        1235            0.0000000000
      3706      1236  TIP3      OH2             2.3001416386       17.6439943859      -12.8049946549  W2        1236            0.0000000000
      3707      1236  TIP3      H1              2.8358916386       18.0956643859      -13.4570646549  W2        1236            0.0000000000
      3708      1236  TIP3      H2              1.4481016386       17.5359743859      -13.2275846549  W2        1236            0.0000000000
      3709      1237  TIP3      OH2             3.8819816386       23.0836143859      -12.5654746549  W2        1237            0.0000000000
      3710      1237  TIP3      H1              4.6324616386       22.9273643859      -13.1386946549  W2        1237            0.0000000000
      3711      1237  TIP3      H2              3.5428116386       23.9352743859      -12.8409246549  W2        1237            0.0000000000
      3712      1238  TIP3      OH2             8.2976016386       20.8987943859       -7.5369446549  W2        1238            0.0000000000
      3713      1238  TIP3      H1              8.4897316386       19.9677343859       -7.6484946549  W2        1238            0.0000000000
      3714      1238  TIP3      H2              9.1552316386       21.3237443859       -7.5474046549  W2        1238            0.0000000000
      3715      1239  TIP3      OH2             0.3662016386       20.4727643859       -8.3861746549  W2        1239            0.0000000000
      3716      1239  TIP3      H1             -0.4008983614       19.9402443859       -8.5964146549  W2        1239            0.0000000000
      3717      1239  TIP3      H2              1.0451016386       20.1628043859       -8.9855446549  W2        1239            0.0000000000
      3718      1240  TIP3      OH2             3.1056916386       15.1005643859      -12.3736346549  W2        1240            0.0000000000
      3719      1240  TIP3      H1              3.0076516386       16.0468843859      -12.4790146549  W2        1240            0.0000000000
      3720      1240  TIP3      H2              2.3633116386       14.7279443859      -12.8492846549  W2        1240            0.0000000000
      3721      1241  TIP3      OH2             4.3697416386       19.4221043859       -8.8097946549  W2        1241            0.0000000000
      3722      1241  TIP3      H1              4.1342816386       19.2027743859       -7.9083046549  W2        1241            0.0000000000
      3723      1241  TIP3      H2              3.5864316386       19.2152243859       -9.3195446549  W2        1241            0.0000000000
      3724      1242  TIP3      OH2             7.0854016386       18.5494543859       -9.7344446549  W2        1242            0.0000000000
      3725      1242  TIP3      H1              6.1379416386       18.5814243859       -9.6021146549  W2        1242            0.0000000000
      3726      1242  TIP3      H2              7.3980716386       17.9241643859       -9.0806246549  W2        1242            0.0000000000
      3727      1243  TIP3      OH2             8.7195516386       17.1835643859       -7.7292546549  W2        1243            0.0000000000
      3728      1243  TIP3      H1              8.6227316386       16.2312943859       -7.7350646549  W2        1243            0.0000000000
      3729      1243  TIP3      H2              8.3978616386       17.4522443859       -6.8687046549  W2        1243            0.0000000000
      3730      1244  TIP3      OH2            -1.4535183614       18.3931443859       -8.6817046549  W2        1244            0.0000000000
      3731      1244  TIP3      H1             -1.2417783614       17.6867543859       -9.2919546549  W2        1244            0.0000000000
      3732      1244  TIP3      H2             -1.5647683614       17.9557443859       -7.8375846549  W2        1244            0.0000000000
      3733      1245  TIP3      OH2             3.3275016386       14.3943043859       -9.7023546549  W2        1245            0.0000000000
      3734      1245  TIP3      H1              4.0393416386       13.7545243859       -9.7164446549  W2        1245            0.0000000000
      3735      1245  TIP3      H2              3.2265416386       14.6611343859      -10.6160446549  W2        1245            0.0000000000
      3736      1246  TIP3      OH2             3.6812516386       16.0771443859       -7.6487246549  W2        1246            0.0000000000
      3737      1246  TIP3      H1              3.5494716386       15.6015243859       -8.4688746549  W2        1246            0.0000000000
      3738      1246  TIP3      H2              3.0819916386       16.8215043859       -7.7040146549  W2        1246            0.0000000000
      3739      1247  TIP3      OH2            12.1901916386       20.6871843859      -25.2874246549  W2        1247            0.0000000000
      3740      1247  TIP3      H1             12.2866316386       21.3538843859      -25.9674546549  W2        1247            0.0000000000
      3741      1247  TIP3      H2             12.0501516386       19.8718143859      -25.7688746549  W2        1247            0.0000000000
      3742      1248  TIP3      OH2            11.3596616386       22.0674243859      -19.6663946549  W2        1248            0.0000000000
      3743      1248  TIP3      H1             11.2095416386       21.1222843859      -19.6866146549  W2        1248            0.0000000000
      3744      1248  TIP3      H2             11.0061116386       22.3485643859      -18.8224846549  W2        1248            0.0000000000
      3745      1249  TIP3      OH2            13.7126616386       21.9403343859       -9.3430246549  W2        1249            0.0000000000
      3746      1249  TIP3      H1             12.8493316386       21.5615443859       -9.5085546549  W2        1249            0.0000000000
      3747      1249  TIP3      H2             14.3170316386       21.2018143859       -9.4174446549  W2        1249            0.0000000000
      3748      1250  TIP3      OH2            11.4375716386       18.0951643859      -26.1698746549  W2        1250            0.0000000000
      3749      1250  TIP3      H1             12.0481516386       17.7238443859      -25.5330546549  W2        1250            0.0000000000
      3750      1250  TIP3      H2             10.6007216386       17.6738543859      -25.9738746549  W2        1250            0.0000000000
      3751      1251  TIP3      OH2            11.0701416386       19.6500043859      -21.2038846549  W2        1251            0.0000000000
      3752      1251  TIP3      H1             11.3498516386       18.7430443859      -21.0797146549  W2        1251            0.0000000000
      3753      1251  TIP3      H2             11.8293116386       20.0841543859      -21.5929646549  W2        1251            0.0000000000
      3754      1252  TIP3      OH2            11.6819716386       20.2317443859      -15.7679946549  W2        1252            0.0000000000
      3755      1252  TIP3      H1             12.6147716386       20.4437343859      -15.8023946549  W2        1252            0.0000000000
      3756      1252  TIP3      H2             11.4467216386       20.3329543859      -14.8456946549  W2        1252            0.0000000000
      3757      1253  TIP3      OH2            11.7111616386       20.9682743859      -12.9920546549  W2        1253            0.0000000000
      3758      1253  TIP3      H1             10.8682916386       21.2363143859      -12.6260746549  W2        1253            0.0000000000
      3759      1253  TIP3      H2             12.1535916386       21.7904643859      -13.2029446549  W2        1253            0.0000000000
      3760      1254  TIP3      OH2            -4.0076183614       19.4161443859       -9.5151346549  W2        1254            0.0000000000
      3761      1254  TIP3      H1             -3.0881283614       19.2939743859       -9.2788246549  W2        1254            0.0000000000
      3762      1254  TIP3      H2             -4.4571683614       18.6661143859       -9.1257846549  W2        1254            0.0000000000
      3763      1255  TIP3      OH2            13.9943216386       14.9482943859       -7.6385546549  W2        1255            0.0000000000
      3764      1255  TIP3      H1             14.3440216386       14.2946443859       -8.2440846549  W2        1255            0.0000000000
      3765      1255  TIP3      H2             14.1412716386       15.7857043859       -8.0782946549  W2        1255            0.0000000000
      3766      1256  TIP3      OH2            11.6836216386       16.9129343859      -21.1556846549  W2        1256            0.0000000000
      3767      1256  TIP3      H1             11.8661216386       16.4640843859      -20.3301846549  W2        1256            0.0000000000
      3768      1256  TIP3      H2             11.0839116386       16.3283743859      -21.6192246549  W2        1256            0.0000000000
      3769      1257  TIP3      OH2            -2.7863683614       17.7283043859      -16.6238446549  W2        1257            0.0000000000
      3770      1257  TIP3      H1             -2.3412083614       16.9365543859      -16.3218746549  W2        1257            0.0000000000
      3771      1257  TIP3      H2             -2.3200683614       18.4448243859      -16.1932846549  W2        1257            0.0000000000
      3772      1258  TIP3      OH2            -4.4823383614       20.7276043859      -15.5548246549  W2        1258            0.0000000000
      3773      1258  TIP3      H1             -3.9903583614       20.5066543859      -16.3456246549  W2        1258            0.0000000000
      3774      1258  TIP3      H2             -4.1202483614       21.5679443859      -15.2738746549  W2        1258            0.0000000000
      3775      1259  TIP3      OH2            13.5140416386       17.0577543859       -9.2894246549  W2        1259            0.0000000000
      3776      1259  TIP3      H1             12.5966116386       17.3284643859       -9.3250746549  W2        1259            0.0000000000
      3777      1259  TIP3      H2             13.6369816386       16.5225943859      -10.0734546549  W2        1259            0.0000000000
      3778      1260  TIP3      OH2            13.5502416386       16.9807443859      -24.6276546549  W2        1260            0.0000000000
      3779      1260  TIP3      H1             13.9625016386       16.2593143859      -25.1028546549  W2        1260            0.0000000000
      3780      1260  TIP3      H2             14.2318916386       17.6502043859      -24.5692246549  W2        1260            0.0000000000
      3781      1261  TIP3      OH2            -4.1686883614       16.9855143859      -21.5005846549  W2        1261            0.0000000000
      3782      1261  TIP3      H1             -5.0938483614       17.1941743859      -21.6300346549  W2        1261            0.0000000000
      3783      1261  TIP3      H2             -3.7146983614       17.4695943859      -22.1903546549  W2        1261            0.0000000000
      3784      1262  TIP3      OH2            -4.2051483614       15.7234143859      -13.1563346549  W2        1262            0.0000000000
      3785      1262  TIP3      H1             -4.8700983614       15.4774443859      -12.5132446549  W2        1262            0.0000000000
      3786      1262  TIP3      H2             -4.6480183614       16.3454543859      -13.7335346549  W2        1262            0.0000000000
      3787      1263  TIP3      OH2            12.5146316386       15.1473843859      -11.4703446549  W2        1263            0.0000000000
      3788      1263  TIP3      H1             11.7019816386       15.4724143859      -11.8578746549  W2        1263            0.0000000000
      3789      1263  TIP3      H2             12.7474816386       14.3872343859      -12.0034346549  W2        1263            0.0000000000
      3790      1264  TIP3      OH2             5.9444816386       16.5964443859      -17.1475246549  W2        1264            0.0000000000
      3791      1264  TIP3      H1              5.2701616386       15.9670043859      -16.8919446549  W2        1264            0.0000000000
      3792      1264  TIP3      H2              6.5084016386       16.1123343859      -17.7507346549  W2        1264            0.0000000000
      3793      1265  TIP3      OH2            11.0872016386       14.7038443859      -17.0348146549  W2        1265            0.0000000000
      3794      1265  TIP3      H1             11.6909616386       15.2513843859      -17.5367146549  W2        1265            0.0000000000
      3795      1265  TIP3      H2             10.2174016386       15.0228843859      -17.2754046549  W2        1265            0.0000000000
      3796      1266  TIP3      OH2            12.8142416386       15.8427143859      -18.7017246549  W2        1266            0.0000000000
      3797      1266  TIP3      H1             13.4259916386       15.3282843859      -19.2283646549  W2        1266            0.0000000000
      3798      1266  TIP3      H2             13.1965816386       16.7199243859      -18.6782846549  W2        1266            0.0000000000
      3799      1267  TIP3      OH2            -1.7287683614       15.2304743859      -19.3255346549  W2        1267            0.0000000000
      3800      1267  TIP3      H1             -2.5057883614       14.9959643859      -19.8329446549  W2        1267            0.0000000000
      3801      1267  TIP3      H2             -1.1984083614       14.4336843859      -19.3167346549  W2        1267            0.0000000000
      3802      1268  TIP3      OH2            -2.8924283614       15.0282843859      -23.5219246549  W2        1268            0.0000000000
      3803      1268  TIP3      H1             -2.4533583614       15.6393343859      -24.1135746549  W2        1268            0.0000000000
      3804      1268  TIP3      H2             -3.5261883614       15.5666943859      -23.0479246549  W2        1268            0.0000000000
      3805      1269  TIP3      OH2             2.8504916386       15.1571843859      -19.5122246549  W2        1269            0.0000000000
      3806      1269  TIP3      H1              3.7248316386       15.5456143859      -19.5417946549  W2        1269            0.0000000000
      3807      1269  TIP3      H2              2.7145716386       14.9419643859      -18.5895046549  W2        1269            0.0000000000
      3808      1270  TIP3      OH2             8.4073316386       15.1871643859      -17.8630546549  W2        1270            0.0000000000
      3809      1270  TIP3      H1              8.4834916386       15.2823243859      -18.8124546549  W2        1270            0.0000000000
      3810      1270  TIP3      H2              8.1322516386       14.2794543859      -17.7341446549  W2        1270            0.0000000000
      3811      1271  TIP3      OH2             9.7605916386       15.2129443859      -22.1705546549  W2        1271            0.0000000000
      3812      1271  TIP3      H1              9.0577016386       15.8278643859      -22.3804146549  W2        1271            0.0000000000
      3813      1271  TIP3      H2              9.3157316386       14.3756143859      -22.0394646549  W2        1271            0.0000000000
      3814      1272  TIP3      OH2            -1.0315183614       16.9444343859      -25.0795146549  W2        1272            0.0000000000
      3815      1272  TIP3      H1             -0.5401783614       16.3146743859      -25.6069646549  W2        1272            0.0000000000
      3816      1272  TIP3      H2             -0.4078883614       17.2403743859      -24.4163946549  W2        1272            0.0000000000
      3817      1273  TIP3      OH2             3.9944916386       17.2375843859      -22.6224646549  W2        1273            0.0000000000
      3818      1273  TIP3      H1              4.1726216386       16.5909043859      -21.9396046549  W2        1273            0.0000000000
      3819      1273  TIP3      H2              3.9411116386       18.0713543859      -22.1553546549  W2        1273            0.0000000000
      3820      1274  TIP3      OH2            -1.7709683614       15.7446643859       -9.8079146549  W2        1274            0.0000000000
      3821      1274  TIP3      H1             -2.1371483614       14.9789243859       -9.3654446549  W2        1274            0.0000000000
      3822      1274  TIP3      H2             -0.8581183614       15.7736843859       -9.5214046549  W2        1274            0.0000000000
      3823      1275  TIP3      OH2             0.2021116386       15.0951043859       -8.2722046549  W2        1275            0.0000000000
      3824      1275  TIP3      H1              1.1004716386       14.8211243859       -8.4568646549  W2        1275            0.0000000000
      3825      1275  TIP3      H2             -0.1845783614       14.3527043859       -7.8079446549  W2        1275            0.0000000000
      3826      1276  TIP3      OH2             8.6233416386       14.4276343859       -8.0899246549  W2        1276            0.0000000000
      3827      1276  TIP3      H1              8.7000616386       14.0017043859       -7.2361546549  W2        1276            0.0000000000
      3828      1276  TIP3      H2              9.5170016386       14.4411043859       -8.4325746549  W2        1276            0.0000000000
      3829      1277  TIP3      OH2            17.5071216386       23.2559843859      -14.3549746549  W2        1277            0.0000000000
      3830      1277  TIP3      H1             17.5483316386       22.6303143859      -13.6317346549  W2        1277            0.0000000000
      3831      1277  TIP3      H2             18.2098916386       23.8798443859      -14.1729346549  W2        1277            0.0000000000
      3832      1278  TIP3      OH2            15.0404816386       21.3661343859      -20.4271846549  W2        1278            0.0000000000
      3833      1278  TIP3      H1             14.5928216386       22.2120043859      -20.4455346549  W2        1278            0.0000000000
      3834      1278  TIP3      H2             14.4796016386       20.7865543859      -20.9426746549  W2        1278            0.0000000000
      3835      1279  TIP3      OH2            19.8235916386       18.5697943859      -17.9419046549  W2        1279            0.0000000000
      3836      1279  TIP3      H1             19.8667016386       19.4296443859      -18.3602746549  W2        1279            0.0000000000
      3837      1279  TIP3      H2             19.3660016386       18.0172643859      -18.5755846549  W2        1279            0.0000000000
      3838      1280  TIP3      OH2            16.4437416386       20.9663743859      -17.1797646549  W2        1280            0.0000000000
      3839      1280  TIP3      H1             17.0974016386       20.4165443859      -16.7477546549  W2        1280            0.0000000000
      3840      1280  TIP3      H2             16.4676716386       20.6922743859      -18.0965646549  W2        1280            0.0000000000
      3841      1281  TIP3      OH2            21.6001916386       22.5165043859      -17.9646146549  W2        1281            0.0000000000
      3842      1281  TIP3      H1             22.2162916386       21.9900443859      -17.4552146549  W2        1281            0.0000000000
      3843      1281  TIP3      H2             21.0140716386       21.8763743859      -18.3682546549  W2        1281            0.0000000000
      3844      1282  TIP3      OH2            18.6337816386       17.4876343859      -13.8678246549  W2        1282            0.0000000000
      3845      1282  TIP3      H1             18.4149516386       18.0176943859      -14.6342246549  W2        1282            0.0000000000
      3846      1282  TIP3      H2             17.9658716386       17.7141843859      -13.2206846549  W2        1282            0.0000000000
      3847      1283  TIP3      OH2            18.2275116386       19.3798143859      -15.9156046549  W2        1283            0.0000000000
      3848      1283  TIP3      H1             18.8411416386       20.0125743859      -15.5423646549  W2        1283            0.0000000000
      3849      1283  TIP3      H2             18.7395816386       18.9073143859      -16.5719146549  W2        1283            0.0000000000
      3850      1284  TIP3      OH2            22.6602516386       14.7931443859      -16.4153346549  W2        1284            0.0000000000
      3851      1284  TIP3      H1             22.5426716386       13.8447443859      -16.4695046549  W2        1284            0.0000000000
      3852      1284  TIP3      H2             21.8052616386       15.1257543859      -16.1422246549  W2        1284            0.0000000000
      3853      1285  TIP3      OH2            20.3444316386       23.2392143859      -15.4471646549  W2        1285            0.0000000000
      3854      1285  TIP3      H1             20.9096816386       23.3606343859      -16.2100446549  W2        1285            0.0000000000
      3855      1285  TIP3      H2             20.6633216386       23.8767143859      -14.8083146549  W2        1285            0.0000000000
      3856      1286  TIP3      OH2            19.9290116386       15.6965943859      -15.6377046549  W2        1286            0.0000000000
      3857      1286  TIP3      H1             19.0673816386       15.6094143859      -16.0454146549  W2        1286            0.0000000000
      3858      1286  TIP3      H2             19.9065816386       16.5526043859      -15.2099446549  W2        1286            0.0000000000
      3859      1287  TIP3      OH2            20.0200216386       20.6620443859      -14.5426846549  W2        1287            0.0000000000
      3860      1287  TIP3      H1             19.3782316386       20.6217743859      -13.8336746549  W2        1287            0.0000000000
      3861      1287  TIP3      H2             20.0572216386       21.5885143859      -14.7803846549  W2        1287            0.0000000000
      3862      1288  TIP3      OH2            20.0169316386       20.8830543859      -19.6306846549  W2        1288            0.0000000000
      3863      1288  TIP3      H1             19.1242216386       20.5426643859      -19.6893046549  W2        1288            0.0000000000
      3864      1288  TIP3      H2             20.4675916386       20.5061443859      -20.3863646549  W2        1288            0.0000000000
      3865      1289  TIP3      OH2            17.7700716386       20.9823943859      -12.6754846549  W2        1289            0.0000000000
      3866      1289  TIP3      H1             17.7320116386       21.3825543859      -11.8067746549  W2        1289            0.0000000000
      3867      1289  TIP3      H2             17.2791816386       20.1656343859      -12.5851946549  W2        1289            0.0000000000
      3868      1290  TIP3      OH2            21.1358116386       18.3566243859      -25.8768846549  W2        1290            0.0000000000
      3869      1290  TIP3      H1             20.7048816386       17.9116343859      -25.1471446549  W2        1290            0.0000000000
      3870      1290  TIP3      H2             20.4176816386       18.7282543859      -26.3891346549  W2        1290            0.0000000000
      3871      1291  TIP3      OH2            14.3781516386       18.0985743859      -18.8250146549  W2        1291            0.0000000000
      3872      1291  TIP3      H1             15.0089216386       18.0697843859      -18.1056246549  W2        1291            0.0000000000
      3873      1291  TIP3      H2             14.8275816386       17.6734443859      -19.5554246549  W2        1291            0.0000000000
      3874      1292  TIP3      OH2            15.6523616386       18.8447743859      -23.4009746549  W2        1292            0.0000000000
      3875      1292  TIP3      H1             16.1265316386       19.4357643859      -23.9858846549  W2        1292            0.0000000000
      3876      1292  TIP3      H2             14.9350016386       19.3750643859      -23.0539646549  W2        1292            0.0000000000
      3877      1293  TIP3      OH2            22.5984616386       18.3108043859      -18.5442746549  W2        1293            0.0000000000
      3878      1293  TIP3      H1             21.6875716386       18.3674843859      -18.2556746549  W2        1293            0.0000000000
      3879      1293  TIP3      H2             23.1037516386       18.2503543859      -17.7335546549  W2        1293            0.0000000000
      3880      1294  TIP3      OH2            17.4268016386       19.9394343859      -19.7175146549  W2        1294            0.0000000000
      3881      1294  TIP3      H1             16.5376016386       20.0389843859      -20.0575546549  W2        1294            0.0000000000
      3882      1294  TIP3      H2             17.7232916386       19.0977343859      -20.0637246549  W2        1294            0.0000000000
      3883      1295  TIP3      OH2            21.0799816386       19.9396943859      -22.0610546549  W2        1295            0.0000000000
      3884      1295  TIP3      H1             22.0115316386       20.0686943859      -21.8827446549  W2        1295            0.0000000000
      3885      1295  TIP3      H2             20.8650116386       20.6091243859      -22.7105846549  W2        1295            0.0000000000
      3886      1296  TIP3      OH2            19.7540016386       21.1339143859      -24.4944446549  W2        1296            0.0000000000
      3887      1296  TIP3      H1             19.2115116386       20.7542943859      -25.1856846549  W2        1296            0.0000000000
      3888      1296  TIP3      H2             20.5874916386       21.3283843859      -24.9230346549  W2        1296            0.0000000000
      3889      1297  TIP3      OH2            18.9204016386       17.2347143859      -20.2388346549  W2        1297            0.0000000000
      3890      1297  TIP3      H1             18.6033516386       16.3322443859      -20.2742946549  W2        1297            0.0000000000
      3891      1297  TIP3      H2             19.7018116386       17.2364543859      -20.7916746549  W2        1297            0.0000000000
      3892      1298  TIP3      OH2            22.5450216386       19.4867143859      -14.2432746549  W2        1298            0.0000000000
      3893      1298  TIP3      H1             21.7095516386       19.9406643859      -14.1330346549  W2        1298            0.0000000000
      3894      1298  TIP3      H2             23.0690816386       19.7625643859      -13.4912846549  W2        1298            0.0000000000
      3895      1299  TIP3      OH2            22.2385716386       22.9721643859       -9.2610246549  W2        1299            0.0000000000
      3896      1299  TIP3      H1             21.9426516386       22.8064643859      -10.1561146549  W2        1299            0.0000000000
      3897      1299  TIP3      H2             23.1700916386       22.7521943859       -9.2716346549  W2        1299            0.0000000000
      3898      1300  TIP3      OH2            16.3438216386       23.3747143859      -24.7974546549  W2        1300            0.0000000000
      3899      1300  TIP3      H1             16.9598116386       24.0014343859      -24.4179746549  W2        1300            0.0000000000
      3900      1300  TIP3      H2             15.4820816386       23.6906943859      -24.5258046549  W2        1300            0.0000000000
      3901      1301  TIP3      OH2            16.8560316386       18.2084443859      -11.9158546549  W2        1301            0.0000000000
      3902      1301  TIP3      H1             15.9632616386       18.5469843859      -11.9834546549  W2        1301            0.0000000000
      3903      1301  TIP3      H2             16.7573116386       17.3530543859      -11.4977746549  W2        1301            0.0000000000
      3904      1302  TIP3      OH2            20.1162216386       17.4737643859      -23.4685646549  W2        1302            0.0000000000
      3905      1302  TIP3      H1             20.0327016386       18.3620743859      -23.1219246549  W2        1302            0.0000000000
      3906      1302  TIP3      H2             21.0062516386       17.2084343859      -23.2368846549  W2        1302            0.0000000000
      3907      1303  TIP3      OH2            16.6906716386       20.5652843859      -25.2921746549  W2        1303            0.0000000000
      3908      1303  TIP3      H1             16.6459316386       21.5045943859      -25.1134746549  W2        1303            0.0000000000
      3909      1303  TIP3      H2             15.8029916386       20.3297743859      -25.5619646549  W2        1303            0.0000000000
      3910      1304  TIP3      OH2            17.4988716386       15.3469443859      -16.6190746549  W2        1304            0.0000000000
      3911      1304  TIP3      H1             17.2698516386       15.4061943859      -17.5465746549  W2        1304            0.0000000000
      3912      1304  TIP3      H2             17.0562116386       14.5554943859      -16.3126646549  W2        1304            0.0000000000
      3913      1305  TIP3      OH2            16.4571716386       22.9107643859       -8.7543346549  W2        1305            0.0000000000
      3914      1305  TIP3      H1             16.8652916386       22.0534243859       -8.8752746549  W2        1305            0.0000000000
      3915      1305  TIP3      H2             16.1969316386       22.9248943859       -7.8333046549  W2        1305            0.0000000000
      3916      1306  TIP3      OH2            20.4042016386       21.9193343859      -11.3800446549  W2        1306            0.0000000000
      3917      1306  TIP3      H1             19.7858116386       22.5939943859      -11.0995746549  W2        1306            0.0000000000
      3918      1306  TIP3      H2             20.7483216386       22.2407243859      -12.2134246549  W2        1306            0.0000000000
      3919      1307  TIP3      OH2            22.1863116386       22.2698043859      -25.4736846549  W2        1307            0.0000000000
      3920      1307  TIP3      H1             22.0058116386       22.1149243859      -26.4008546549  W2        1307            0.0000000000
      3921      1307  TIP3      H2             23.1363616386       22.3776743859      -25.4288946549  W2        1307            0.0000000000
      3922      1308  TIP3      OH2            20.7435716386       19.2744143859      -10.2977346549  W2        1308            0.0000000000
      3923      1308  TIP3      H1             20.8936616386       18.5455443859      -10.8997646549  W2        1308            0.0000000000
      3924      1308  TIP3      H2             20.7458116386       20.0515843859      -10.8565146549  W2        1308            0.0000000000
      3925      1309  TIP3      OH2            21.1561416386       17.6439943859      -12.8049946549  W2        1309            0.0000000000
      3926      1309  TIP3      H1             21.6918916386       18.0956643859      -13.4570646549  W2        1309            0.0000000000
      3927      1309  TIP3      H2             20.3041016386       17.5359743859      -13.2275846549  W2        1309            0.0000000000
      3928      1310  TIP3      OH2            22.7379816386       23.0836143859      -12.5654746549  W2        1310            0.0000000000
      3929      1310  TIP3      H1             23.4884616386       22.9273643859      -13.1386946549  W2        1310            0.0000000000
      3930      1310  TIP3      H2             22.3988116386       23.9352743859      -12.8409246549  W2        1310            0.0000000000
      3931      1311  TIP3      OH2            19.2222016386       20.4727643859       -8.3861746549  W2        1311            0.0000000000
      3932      1311  TIP3      H1             18.4551016386       19.9402443859       -8.5964146549  W2        1311            0.0000000000
      3933      1311  TIP3      H2             19.9011016386       20.1628043859       -8.9855446549  W2        1311            0.0000000000
      3934      1312  TIP3      OH2            21.9616916386       15.1005643859      -12.3736346549  W2        1312            0.0000000000
      3935      1312  TIP3      H1             21.8636516386       16.0468843859      -12.4790146549  W2        1312            0.0000000000
      3936      1312  TIP3      H2             21.2193116386       14.7279443859      -12.8492846549  W2        1312            0.0000000000
      3937      1313  TIP3      OH2            23.2257416386       19.4221043859       -8.8097946549  W2        1313            0.0000000000
      3938      1313  TIP3      H1             22.9902816386       19.2027743859       -7.9083046549  W2        1313            0.0000000000
      3939      1313  TIP3      H2             22.4424316386       19.2152243859       -9.3195446549  W2        1313            0.0000000000
      3940      1314  TIP3      OH2            17.4024816386       18.3931443859       -8.6817046549  W2        1314            0.0000000000
      3941      1314  TIP3      H1             17.6142216386       17.6867543859       -9.2919546549  W2        1314            0.0000000000
      3942      1314  TIP3      H2             17.2912316386       17.9557443859       -7.8375846549  W2        1314            0.0000000000
      3943      1315  TIP3      OH2            22.1835016386       14.3943043859       -9.7023546549  W2        1315            0.0000000000
      3944      1315  TIP3      H1             22.8953416386       13.7545243859       -9.7164446549  W2        1315            0.0000000000
      3945      1315  TIP3      H2             22.0825416386       14.6611343859      -10.6160446549  W2        1315            0.0000000000
      3946      1316  TIP3      OH2            22.5372516386       16.0771443859       -7.6487246549  W2        1316            0.0000000000
      3947      1316  TIP3      H1             22.4054716386       15.6015243859       -8.4688746549  W2        1316            0.0000000000
      3948      1316  TIP3      H2             21.9379916386       16.8215043859       -7.7040146549  W2        1316            0.0000000000
      3949      1317  TIP3      OH2            14.8483816386       19.4161443859       -9.5151346549  W2        1317            0.0000000000
      3950      1317  TIP3      H1             15.7678716386       19.2939743859       -9.2788246549  W2        1317            0.0000000000
      3951      1317  TIP3      H2             14.3988316386       18.6661143859       -9.1257846549  W2        1317            0.0000000000
      3952      1318  TIP3      OH2            16.0696316386       17.7283043859      -16.6238446549  W2        1318            0.0000000000
      3953      1318  TIP3      H1             16.5147916386       16.9365543859      -16.3218746549  W2        1318            0.0000000000
      3954      1318  TIP3      H2             16.5359316386       18.4448243859      -16.1932846549  W2        1318            0.0000000000
      3955      1319  TIP3      OH2            14.3736616386       20.7276043859      -15.5548246549  W2        1319            0.0000000000
      3956      1319  TIP3      H1             14.8656416386       20.5066543859      -16.3456246549  W2        1319            0.0000000000
      3957      1319  TIP3      H2             14.7357516386       21.5679443859      -15.2738746549  W2        1319            0.0000000000
      3958      1320  TIP3      OH2            14.6873116386       16.9855143859      -21.5005846549  W2        1320            0.0000000000
      3959      1320  TIP3      H1             13.7621516386       17.1941743859      -21.6300346549  W2        1320            0.0000000000
      3960      1320  TIP3      H2             15.1413016386       17.4695943859      -22.1903546549  W2        1320            0.0000000000
      3961      1321  TIP3      OH2            14.6508516386       15.7234143859      -13.1563346549  W2        1321            0.0000000000
      3962      1321  TIP3      H1             13.9859016386       15.4774443859      -12.5132446549  W2        1321            0.0000000000
      3963      1321  TIP3      H2             14.2079816386       16.3454543859      -13.7335346549  W2        1321            0.0000000000
      3964      1322  TIP3      OH2            17.1272316386       15.2304743859      -19.3255346549  W2        1322            0.0000000000
      3965      1322  TIP3      H1             16.3502116386       14.9959643859      -19.8329446549  W2        1322            0.0000000000
      3966      1322  TIP3      H2             17.6575916386       14.4336843859      -19.3167346549  W2        1322            0.0000000000
      3967      1323  TIP3      OH2            15.9635716386       15.0282843859      -23.5219246549  W2        1323            0.0000000000
      3968      1323  TIP3      H1             16.4026416386       15.6393343859      -24.1135746549  W2        1323            0.0000000000
      3969      1323  TIP3      H2             15.3298116386       15.5666943859      -23.0479246549  W2        1323            0.0000000000
      3970      1324  TIP3      OH2            21.7064916386       15.1571843859      -19.5122246549  W2        1324            0.0000000000
      3971      1324  TIP3      H1             22.5808316386       15.5456143859      -19.5417946549  W2        1324            0.0000000000
      3972      1324  TIP3      H2             21.5705716386       14.9419643859      -18.5895046549  W2        1324            0.0000000000
      3973      1325  TIP3      OH2            17.8244816386       16.9444343859      -25.0795146549  W2        1325            0.0000000000
      3974      1325  TIP3      H1             18.3158216386       16.3146743859      -25.6069646549  W2        1325            0.0000000000
      3975      1325  TIP3      H2             18.4481116386       17.2403743859      -24.4163946549  W2        1325            0.0000000000
      3976      1326  TIP3      OH2            22.8504916386       17.2375843859      -22.6224646549  W2        1326            0.0000000000
      3977      1326  TIP3      H1             23.0286216386       16.5909043859      -21.9396046549  W2        1326            0.0000000000
      3978      1326  TIP3      H2             22.7971116386       18.0713543859      -22.1553546549  W2        1326            0.0000000000
      3979      1327  TIP3      OH2            17.0850316386       15.7446643859       -9.8079146549  W2        1327            0.0000000000
      3980      1327  TIP3      H1             16.7188516386       14.9789243859       -9.3654446549  W2        1327            0.0000000000
      3981      1327  TIP3      H2             17.9978816386       15.7736843859       -9.5214046549  W2        1327            0.0000000000
      3982      1328  TIP3      OH2            19.0581116386       15.0951043859       -8.2722046549  W2        1328            0.0000000000
      3983      1328  TIP3      H1             19.9564716386       14.8211243859       -8.4568646549  W2        1328            0.0000000000
      3984      1328  TIP3      H2             18.6714216386       14.3527043859       -7.8079446549  W2        1328            0.0000000000
      3985      1329  TIP3      OH2           -11.5065083614      -13.3252956141       -0.5107846549  W2        1329            0.0000000000
      3986      1329  TIP3      H1            -11.4173983614      -12.3814756141       -0.6430746549  W2        1329            0.0000000000
      3987      1329  TIP3      H2            -12.1447483614      -13.6006556141       -1.1688446549  W2        1329            0.0000000000
      3988      1330  TIP3      OH2           -12.5733783614      -14.0702256141        2.9080353451  W2        1330            0.0000000000
      3989      1330  TIP3      H1            -12.6116283614      -14.7165956141        3.6129953451  W2        1330            0.0000000000
      3990      1330  TIP3      H2            -12.8957283614      -14.5367856141        2.1369053451  W2        1330            0.0000000000
      3991      1331  TIP3      OH2           -20.2048783614      -14.4560156141        4.5010253451  W2        1331            0.0000000000
      3992      1331  TIP3      H1            -20.1636683614      -15.0816856141        5.2242653451  W2        1331            0.0000000000
      3993      1331  TIP3      H2            -19.5021083614      -13.8321556141        4.6830653451  W2        1331            0.0000000000
      3994      1332  TIP3      OH2            -8.8673583614      -11.1311856141        1.2095453451  W2        1332            0.0000000000
      3995      1332  TIP3      H1             -9.3080883614      -11.8515856141        1.6601053451  W2        1332            0.0000000000
      3996      1332  TIP3      H2             -8.8803883614      -10.4104656141        1.8393153451  W2        1332            0.0000000000
      3997      1333  TIP3      OH2           -19.2815683614      -10.0061256141        3.0359353451  W2        1333            0.0000000000
      3998      1333  TIP3      H1            -19.6510483614      -10.8080756141        2.6663653451  W2        1333            0.0000000000
      3999      1333  TIP3      H2            -18.3404583614      -10.1746356141        3.0822753451  W2        1333            0.0000000000
      4000      1334  TIP3      OH2           -22.6715183614      -16.3458656141       -1.5711846549  W2        1334            0.0000000000
      4001      1334  TIP3      H1            -23.1191783614      -15.4999956141       -1.5895346549  W2        1334            0.0000000000
      4002      1334  TIP3      H2            -23.2323983614      -16.9254456141       -2.0866746549  W2        1334            0.0000000000
      4003      1335  TIP3      OH2           -21.9609083614      -14.1839056141        0.5546153451  W2        1335            0.0000000000
      4004      1335  TIP3      H1            -21.7475583614      -14.9537456141        1.0819153451  W2        1335            0.0000000000
      4005      1335  TIP3      H2            -21.2231483614      -14.0942356141       -0.0486246549  W2        1335            0.0000000000
      4006      1336  TIP3      OH2           -11.7558083614       -6.0270156141        1.4215853451  W2        1336            0.0000000000
      4007      1336  TIP3      H1            -11.1361683614       -6.7035456141        1.1485053451  W2        1336            0.0000000000
      4008      1336  TIP3      H2            -11.9640683614       -6.2449356141        2.3300753451  W2        1336            0.0000000000
      4009      1337  TIP3      OH2           -14.1839383614      -11.6380856141        3.3141353451  W2        1337            0.0000000000
      4010      1337  TIP3      H1            -13.8801483614      -12.3239456141        2.7195453451  W2        1337            0.0000000000
      4011      1337  TIP3      H2            -13.4625383614      -11.5192156141        3.9319353451  W2        1337            0.0000000000
      4012      1338  TIP3      OH2            -5.5209583614      -20.0365556141        4.1747553451  W2        1338            0.0000000000
      4013      1338  TIP3      H1             -5.4717383614      -19.4264356141        4.9106653451  W2        1338            0.0000000000
      4014      1338  TIP3      H2             -5.0954483614      -19.5754656141        3.4518653451  W2        1338            0.0000000000
      4015      1339  TIP3      OH2           -11.0432383614      -17.2438456141        3.6416153451  W2        1339            0.0000000000
      4016      1339  TIP3      H1            -10.9006483614      -18.1901456141        3.6617753451  W2        1339            0.0000000000
      4017      1339  TIP3      H2            -11.1493383614      -17.0368656141        2.7131053451  W2        1339            0.0000000000
      4018      1340  TIP3      OH2           -17.8884083614      -19.1422056141        0.9140953451  W2        1340            0.0000000000
      4019      1340  TIP3      H1            -17.8452983614      -18.2823556141        0.4957253451  W2        1340            0.0000000000
      4020      1340  TIP3      H2            -18.3459983614      -19.6947356141        0.2804153451  W2        1340            0.0000000000
      4021      1341  TIP3      OH2           -10.1661383614      -19.0116456141       -0.6850746549  W2        1341            0.0000000000
      4022      1341  TIP3      H1             -9.5197083614      -19.3403256141       -0.0603146549  W2        1341            0.0000000000
      4023      1341  TIP3      H2             -9.6561983614      -18.4937456141       -1.3079346549  W2        1341            0.0000000000
      4024      1342  TIP3      OH2           -21.2682583614      -16.7456256141        1.6762353451  W2        1342            0.0000000000
      4025      1342  TIP3      H1            -20.6145983614      -17.2954556141        2.1082453451  W2        1342            0.0000000000
      4026      1342  TIP3      H2            -21.2443283614      -17.0197256141        0.7594353451  W2        1342            0.0000000000
      4027      1343  TIP3      OH2           -16.1118083614      -15.1954956141        0.8913853451  W2        1343            0.0000000000
      4028      1343  TIP3      H1            -15.4957083614      -15.7219556141        1.4007853451  W2        1343            0.0000000000
      4029      1343  TIP3      H2            -16.6979283614      -15.8356256141        0.4877453451  W2        1343            0.0000000000
      4030      1344  TIP3      OH2            -5.1294983614      -18.5586356141        6.4107353451  W2        1344            0.0000000000
      4031      1344  TIP3      H1             -5.8180383614      -17.9005656141        6.3153953451  W2        1344            0.0000000000
      4032      1344  TIP3      H2             -5.1140383614      -18.7558456141        7.3472753451  W2        1344            0.0000000000
      4033      1345  TIP3      OH2           -19.0782183614      -20.2243656141        4.9881753451  W2        1345            0.0000000000
      4034      1345  TIP3      H1            -19.2970483614      -19.6943056141        4.2217753451  W2        1345            0.0000000000
      4035      1345  TIP3      H2            -19.7461283614      -19.9978156141        5.6353153451  W2        1345            0.0000000000
      4036      1346  TIP3      OH2           -11.7092383614      -10.7242556141       -1.4679146549  W2        1346            0.0000000000
      4037      1346  TIP3      H1            -12.0047283614      -11.0470256141       -2.3192246549  W2        1346            0.0000000000
      4038      1346  TIP3      H2            -12.0334583614       -9.8245856141       -1.4266546549  W2        1346            0.0000000000
      4039      1347  TIP3      OH2           -16.5090783614      -12.5487956141        5.2755453451  W2        1347            0.0000000000
      4040      1347  TIP3      H1            -17.2491683614      -11.9506456141        5.3790653451  W2        1347            0.0000000000
      4041      1347  TIP3      H2            -15.7951283614      -11.9948356141        4.9599053451  W2        1347            0.0000000000
      4042      1348  TIP3      OH2            -8.4022983614      -19.7207156141        1.2955153451  W2        1348            0.0000000000
      4043      1348  TIP3      H1             -8.6174983614      -20.4863756141        1.8281153451  W2        1348            0.0000000000
      4044      1348  TIP3      H2             -7.7465583614      -19.2482556141        1.8083653451  W2        1348            0.0000000000
      4045      1349  TIP3      OH2           -19.4844883614      -18.3321856141        2.9403953451  W2        1349            0.0000000000
      4046      1349  TIP3      H1            -18.8708583614      -17.6994256141        3.3136353451  W2        1349            0.0000000000
      4047      1349  TIP3      H2            -18.9724183614      -18.8046856141        2.2840853451  W2        1349            0.0000000000
      4048      1350  TIP3      OH2           -18.1016483614      -10.5844956141        6.0626953451  W2        1350            0.0000000000
      4049      1350  TIP3      H1            -18.1068883614       -9.7051456141        5.6846253451  W2        1350            0.0000000000
      4050      1350  TIP3      H2            -18.9552383614      -10.6680856141        6.4876853451  W2        1350            0.0000000000
      4051      1351  TIP3      OH2           -21.9805583614      -10.9137056141       -3.1553746549  W2        1351            0.0000000000
      4052      1351  TIP3      H1            -22.2524683614      -10.6846056141       -4.0440846549  W2        1351            0.0000000000
      4053      1351  TIP3      H2            -21.9349883614      -10.0758256141       -2.6948446549  W2        1351            0.0000000000
      4054      1352  TIP3      OH2            -8.3555883614       -9.2921156141        3.5574753451  W2        1352            0.0000000000
      4055      1352  TIP3      H1             -9.2972183614       -9.2337256141        3.7191653451  W2        1352            0.0000000000
      4056      1352  TIP3      H2             -8.0789783614       -8.3860656141        3.4204453451  W2        1352            0.0000000000
      4057      1353  TIP3      OH2            -8.0548883614      -21.0055856141        4.9748653451  W2        1353            0.0000000000
      4058      1353  TIP3      H1             -8.7909683614      -20.3948756141        4.9369953451  W2        1353            0.0000000000
      4059      1353  TIP3      H2             -7.3714883614      -20.5906856141        4.4485053451  W2        1353            0.0000000000
      4060      1354  TIP3      OH2           -15.0517483614      -22.9188556141        2.4406653451  W2        1354            0.0000000000
      4061      1354  TIP3      H1            -15.1693283614      -23.8672556141        2.3864953451  W2        1354            0.0000000000
      4062      1354  TIP3      H2            -15.9067383614      -22.5862456141        2.7137753451  W2        1354            0.0000000000
      4063      1355  TIP3      OH2           -10.1034683614       -7.5107656141        0.1826353451  W2        1355            0.0000000000
      4064      1355  TIP3      H1             -9.6782383614       -8.2179756141       -0.3024046549  W2        1355            0.0000000000
      4065      1355  TIP3      H2             -9.7864683614       -6.7094956141       -0.2341446549  W2        1355            0.0000000000
      4066      1356  TIP3      OH2            -8.9438183614       -9.6099156141       -1.3087046549  W2        1356            0.0000000000
      4067      1356  TIP3      H1             -9.2013383614      -10.2999056141       -1.9201146549  W2        1356            0.0000000000
      4068      1356  TIP3      H2             -8.8727383614      -10.0527956141       -0.4631146549  W2        1356            0.0000000000
      4069      1357  TIP3      OH2            -7.2577983614      -11.0432456141        7.1686453451  W2        1357            0.0000000000
      4070      1357  TIP3      H1             -7.1181683614      -11.6349956141        6.4293453451  W2        1357            0.0000000000
      4071      1357  TIP3      H2             -7.0905183614      -10.1706556141        6.8125253451  W2        1357            0.0000000000
      4072      1358  TIP3      OH2           -12.7852583614      -14.0812956141       -3.0587546549  W2        1358            0.0000000000
      4073      1358  TIP3      H1            -13.4967083614      -13.5463256141       -3.4107046549  W2        1358            0.0000000000
      4074      1358  TIP3      H2            -12.0942983614      -14.0260856141       -3.7188646549  W2        1358            0.0000000000
      4075      1359  TIP3      OH2           -12.7313383614      -15.6238656141       -6.0202546549  W2        1359            0.0000000000
      4076      1359  TIP3      H1            -12.0303483614      -15.6011756141       -5.3688546549  W2        1359            0.0000000000
      4077      1359  TIP3      H2            -12.4290483614      -16.2518956141       -6.6763246549  W2        1359            0.0000000000
      4078      1360  TIP3      OH2            -5.4158683614      -14.7034456141        5.2346853451  W2        1360            0.0000000000
      4079      1360  TIP3      H1             -6.0684583614      -14.0088856141        5.3237753451  W2        1360            0.0000000000
      4080      1360  TIP3      H2             -4.9508383614      -14.4933556141        4.4248453451  W2        1360            0.0000000000
      4081      1361  TIP3      OH2            -9.3794883614      -13.8719656141       -2.1071646549  W2        1361            0.0000000000
      4082      1361  TIP3      H1            -10.1113883614      -13.6435956141       -1.5341046549  W2        1361            0.0000000000
      4083      1361  TIP3      H2             -8.9322683614      -14.5856956141       -1.6524146549  W2        1361            0.0000000000
      4084      1362  TIP3      OH2            -9.4821383614      -15.6977056141        6.9605353451  W2        1362            0.0000000000
      4085      1362  TIP3      H1             -9.4022283614      -14.9342656141        7.5323853451  W2        1362            0.0000000000
      4086      1362  TIP3      H2            -10.0833683614      -15.4184656141        6.2700453451  W2        1362            0.0000000000
      4087      1363  TIP3      OH2           -17.7341183614      -13.2413456141       -0.2246646549  W2        1363            0.0000000000
      4088      1363  TIP3      H1            -18.0645983614      -13.6120056141       -1.0429646549  W2        1363            0.0000000000
      4089      1363  TIP3      H2            -17.1457083614      -13.9119456141        0.1221653451  W2        1363            0.0000000000
      4090      1364  TIP3      OH2           -16.3673683614       -9.8132856141        2.4565553451  W2        1364            0.0000000000
      4091      1364  TIP3      H1            -16.4622383614      -10.3919756141        1.7000153451  W2        1364            0.0000000000
      4092      1364  TIP3      H2            -15.6380083614      -10.1847156141        2.9528353451  W2        1364            0.0000000000
      4093      1365  TIP3      OH2           -17.3675683614      -14.4727856141        3.4088353451  W2        1365            0.0000000000
      4094      1365  TIP3      H1            -16.8023183614      -14.3513656141        2.6459553451  W2        1365            0.0000000000
      4095      1365  TIP3      H2            -17.0486783614      -13.8352856141        4.0476853451  W2        1365            0.0000000000
      4096      1366  TIP3      OH2           -11.0583483614       -8.9695956141        4.1428853451  W2        1366            0.0000000000
      4097      1366  TIP3      H1            -11.2986883614       -8.3072856141        4.7908053451  W2        1366            0.0000000000
      4098      1366  TIP3      H2            -11.2565283614       -9.8040756141        4.5678453451  W2        1366            0.0000000000
      4099      1367  TIP3      OH2           -16.4874983614      -10.0735156141        8.1260253451  W2        1367            0.0000000000
      4100      1367  TIP3      H1            -16.7987483614       -9.2911956141        8.5813453451  W2        1367            0.0000000000
      4101      1367  TIP3      H2            -17.1374783614      -10.2266056141        7.4402253451  W2        1367            0.0000000000
      4102      1368  TIP3      OH2           -10.5085383614      -14.7096756141       -4.4220446549  W2        1368            0.0000000000
      4103      1368  TIP3      H1             -9.9289883614      -14.5596456141       -3.6751546549  W2        1368            0.0000000000
      4104      1368  TIP3      H2            -10.0945383614      -14.2389356141       -5.1454046549  W2        1368            0.0000000000
      4105      1369  TIP3      OH2           -19.5675083614      -13.8754056141        7.3545953451  W2        1369            0.0000000000
      4106      1369  TIP3      H1            -19.4971883614      -13.2247256141        8.0530953451  W2        1369            0.0000000000
      4107      1369  TIP3      H2            -20.4582883614      -13.7726556141        7.0196853451  W2        1369            0.0000000000
      4108      1370  TIP3      OH2           -12.7820483614       -7.9728256141       -0.9867346549  W2        1370            0.0000000000
      4109      1370  TIP3      H1            -12.3082883614       -7.6771956141       -0.2093146549  W2        1370            0.0000000000
      4110      1370  TIP3      H2            -13.3451183614       -7.2346656141       -1.2197746549  W2        1370            0.0000000000
      4111      1371  TIP3      OH2           -18.2479083614       -8.0020156141        8.8894053451  W2        1371            0.0000000000
      4112      1371  TIP3      H1            -18.2403783614       -8.1380456141        7.9419553451  W2        1371            0.0000000000
      4113      1371  TIP3      H2            -19.1638683614       -8.1192056141        9.1414053451  W2        1371            0.0000000000
      4114      1372  TIP3      OH2            -6.8096983614      -22.9596356141       -4.6090746549  W2        1372            0.0000000000
      4115      1372  TIP3      H1             -7.7096283614      -22.8207356141       -4.3140146549  W2        1372            0.0000000000
      4116      1372  TIP3      H2             -6.5578583614      -22.1281756141       -5.0109046549  W2        1372            0.0000000000
      4117      1373  TIP3      OH2           -18.7438483614      -14.1719156141       -2.6353846549  W2        1373            0.0000000000
      4118      1373  TIP3      H1            -19.0357183614      -13.4037456141       -3.1262546549  W2        1373            0.0000000000
      4119      1373  TIP3      H2            -19.4183283614      -14.8312956141       -2.7982446549  W2        1373            0.0000000000
      4120      1374  TIP3      OH2            -5.6205583614       -8.5933956141       -6.2326846549  W2        1374            0.0000000000
      4121      1374  TIP3      H1             -5.5472083614       -7.6543756141       -6.0621546549  W2        1374            0.0000000000
      4122      1374  TIP3      H2             -4.7150483614       -8.8985356141       -6.2889546549  W2        1374            0.0000000000
      4123      1375  TIP3      OH2           -22.6508383614      -11.8089956141        6.1795953451  W2        1375            0.0000000000
      4124      1375  TIP3      H1            -23.1519983614      -11.8370556141        5.3645653451  W2        1375            0.0000000000
      4125      1375  TIP3      H2            -22.6454683614      -12.7146756141        6.4893253451  W2        1375            0.0000000000
      4126      1376  TIP3      OH2           -22.9005683614       -9.0286156141        3.0636153451  W2        1376            0.0000000000
      4127      1376  TIP3      H1            -21.9545083614       -9.1729156141        3.0445653451  W2        1376            0.0000000000
      4128      1376  TIP3      H2            -23.0129383614       -8.2443356141        3.6007353451  W2        1376            0.0000000000
      4129      1377  TIP3      OH2            -4.7027183614       -8.3626456141        8.7459853451  W2        1377            0.0000000000
      4130      1377  TIP3      H1             -4.7520383614       -9.3178356141        8.7087453451  W2        1377            0.0000000000
      4131      1377  TIP3      H2             -5.5294883614       -8.0951156141        9.1473653451  W2        1377            0.0000000000
      4132      1378  TIP3      OH2           -13.7243183614       -8.7887256141        7.6221253451  W2        1378            0.0000000000
      4133      1378  TIP3      H1            -13.6368583614       -7.9622656141        8.0970353451  W2        1378            0.0000000000
      4134      1378  TIP3      H2            -14.5878083614       -9.1183456141        7.8710553451  W2        1378            0.0000000000
      4135      1379  TIP3      OH2           -13.3097383614       -5.0163556141       -2.5718146549  W2        1379            0.0000000000
      4136      1379  TIP3      H1            -13.3851383614       -5.1376356141       -3.5182946549  W2        1379            0.0000000000
      4137      1379  TIP3      H2            -13.2768683614       -4.0670856141       -2.4533546549  W2        1379            0.0000000000
      4138      1380  TIP3      OH2           -19.6563583614       -6.2276556141       -0.7909146549  W2        1380            0.0000000000
      4139      1380  TIP3      H1            -19.5043183614       -6.5756156141        0.0877353451  W2        1380            0.0000000000
      4140      1380  TIP3      H2            -20.5073183614       -6.5839256141       -1.0461946549  W2        1380            0.0000000000
      4141      1381  TIP3      OH2           -10.2081383614       -5.8623356141       -5.5695746549  W2        1381            0.0000000000
      4142      1381  TIP3      H1             -9.8332983614       -6.6067256141       -6.0403146549  W2        1381            0.0000000000
      4143      1381  TIP3      H2            -10.2037683614       -6.1322756141       -4.6512446549  W2        1381            0.0000000000
      4144      1382  TIP3      OH2           -10.5393283614       -5.9366256141       -2.8203546549  W2        1382            0.0000000000
      4145      1382  TIP3      H1            -11.4743483614       -5.8364356141       -2.6416546549  W2        1382            0.0000000000
      4146      1382  TIP3      H2            -10.2591383614       -6.6460256141       -2.2420346549  W2        1382            0.0000000000
      4147      1383  TIP3      OH2            -7.5507383614      -16.8693956141        9.2262053451  W2        1383            0.0000000000
      4148      1383  TIP3      H1             -7.9580583614      -16.3888356141        8.5055353451  W2        1383            0.0000000000
      4149      1383  TIP3      H2             -7.5101683614      -17.7747956141        8.9182853451  W2        1383            0.0000000000
      4150      1384  TIP3      OH2           -20.4017883614      -10.4854556141        7.2228753451  W2        1384            0.0000000000
      4151      1384  TIP3      H1            -20.1856583614      -10.8468956141        8.0824553451  W2        1384            0.0000000000
      4152      1384  TIP3      H2            -21.2573183614      -10.8600756141        7.0132253451  W2        1384            0.0000000000
      4153      1385  TIP3      OH2           -17.7829883614      -22.0154056141        3.2182953451  W2        1385            0.0000000000
      4154      1385  TIP3      H1            -18.6446183614      -22.1025856141        2.8105853451  W2        1385            0.0000000000
      4155      1385  TIP3      H2            -17.8054183614      -21.1593956141        3.6460553451  W2        1385            0.0000000000
      4156      1386  TIP3      OH2           -13.1202083614      -22.2933656141        6.5929953451  W2        1386            0.0000000000
      4157      1386  TIP3      H1            -12.6998983614      -22.7086556141        7.3460553451  W2        1386            0.0000000000
      4158      1386  TIP3      H2            -14.0532483614      -22.4720356141        6.7101953451  W2        1386            0.0000000000
      4159      1387  TIP3      OH2            -9.7937183614      -18.5378456141        7.4464453451  W2        1387            0.0000000000
      4160      1387  TIP3      H1            -10.3077683614      -18.6636256141        8.2440453451  W2        1387            0.0000000000
      4161      1387  TIP3      H2             -9.9492483614      -17.6255356141        7.2020653451  W2        1387            0.0000000000
      4162      1388  TIP3      OH2            -9.0312283614      -13.6768456141       -6.7922546549  W2        1388            0.0000000000
      4163      1388  TIP3      H1             -8.9891483614      -13.8994556141       -7.7222546549  W2        1388            0.0000000000
      4164      1388  TIP3      H2             -8.1820183614      -13.2781356141       -6.6022646549  W2        1388            0.0000000000
      4165      1389  TIP3      OH2           -13.4584783614      -19.8010256141       -6.1219246549  W2        1389            0.0000000000
      4166      1389  TIP3      H1            -13.7119983614      -19.7818656141       -5.1991146549  W2        1389            0.0000000000
      4167      1389  TIP3      H2            -13.7152683614      -20.6724856141       -6.4233046549  W2        1389            0.0000000000
      4168      1390  TIP3      OH2           -17.6919783614      -17.0499556141        4.3133153451  W2        1390            0.0000000000
      4169      1390  TIP3      H1            -18.3337683614      -17.0902256141        5.0223253451  W2        1390            0.0000000000
      4170      1390  TIP3      H2            -17.6547783614      -16.1234856141        4.0756153451  W2        1390            0.0000000000
      4171      1391  TIP3      OH2           -17.6950683614      -16.8289456141       -0.7746846549  W2        1391            0.0000000000
      4172      1391  TIP3      H1            -18.5877783614      -17.1693356141       -0.8333046549  W2        1391            0.0000000000
      4173      1391  TIP3      H2            -17.2444083614      -17.2058556141       -1.5303646549  W2        1391            0.0000000000
      4174      1392  TIP3      OH2           -12.1595183614      -16.4129156141       -1.9576046549  W2        1392            0.0000000000
      4175      1392  TIP3      H1            -12.5684883614      -15.5980556141       -2.2491246549  W2        1392            0.0000000000
      4176      1392  TIP3      H2            -11.4388983614      -16.5529056141       -2.5718946549  W2        1392            0.0000000000
      4177      1393  TIP3      OH2           -13.0573583614      -16.2372756141        9.5304653451  W2        1393            0.0000000000
      4178      1393  TIP3      H1            -13.6199783614      -16.9421156141        9.8512453451  W2        1393            0.0000000000
      4179      1393  TIP3      H2            -12.2310183614      -16.3580856141        9.9982253451  W2        1393            0.0000000000
      4180      1394  TIP3      OH2           -11.1547483614      -16.9668756141        0.8563653451  W2        1394            0.0000000000
      4181      1394  TIP3      H1            -11.3502983614      -16.3611956141        0.1414253451  W2        1394            0.0000000000
      4182      1394  TIP3      H2            -10.9734883614      -17.8003556141        0.4219953451  W2        1394            0.0000000000
      4183      1395  TIP3      OH2           -19.9419283614      -16.7296056141        6.1805153451  W2        1395            0.0000000000
      4184      1395  TIP3      H1            -19.9799883614      -16.3294456141        7.0492253451  W2        1395            0.0000000000
      4185      1395  TIP3      H2            -20.4328183614      -17.5463656141        6.2708053451  W2        1395            0.0000000000
      4186      1396  TIP3      OH2           -16.5761883614      -19.3553756141       -7.0208846549  W2        1396            0.0000000000
      4187      1396  TIP3      H1            -17.0071183614      -19.8003656141       -6.2911446549  W2        1396            0.0000000000
      4188      1396  TIP3      H2            -17.2943183614      -18.9837456141       -7.5331346549  W2        1396            0.0000000000
      4189      1397  TIP3      OH2           -23.3338483614      -19.6134256141        0.0309853451  W2        1397            0.0000000000
      4190      1397  TIP3      H1            -22.7030783614      -19.6422156141        0.7503753451  W2        1397            0.0000000000
      4191      1397  TIP3      H2            -22.8844183614      -20.0385556141       -0.6994246549  W2        1397            0.0000000000
      4192      1398  TIP3      OH2           -22.0596383614      -18.8672256141       -4.5449746549  W2        1398            0.0000000000
      4193      1398  TIP3      H1            -21.5854683614      -18.2762356141       -5.1298846549  W2        1398            0.0000000000
      4194      1398  TIP3      H2            -22.7769983614      -18.3369356141       -4.1979646549  W2        1398            0.0000000000
      4195      1399  TIP3      OH2           -11.8908283614      -15.3287456141        5.5276053451  W2        1399            0.0000000000
      4196      1399  TIP3      H1            -11.5673483614      -15.9597756141        4.8846553451  W2        1399            0.0000000000
      4197      1399  TIP3      H2            -12.3308983614      -15.8635256141        6.1883453451  W2        1399            0.0000000000
      4198      1400  TIP3      OH2           -15.1135383614      -19.4011956141        0.3117253451  W2        1400            0.0000000000
      4199      1400  TIP3      H1            -16.0244283614      -19.3445156141        0.6003253451  W2        1400            0.0000000000
      4200      1400  TIP3      H2            -14.6082483614      -19.4616456141        1.1224453451  W2        1400            0.0000000000
      4201      1401  TIP3      OH2           -20.2851983614      -17.7725656141       -0.8615146549  W2        1401            0.0000000000
      4202      1401  TIP3      H1            -21.1743983614      -17.6730156141       -1.2015546549  W2        1401            0.0000000000
      4203      1401  TIP3      H2            -19.9887083614      -18.6142656141       -1.2077246549  W2        1401            0.0000000000
      4204      1402  TIP3      OH2           -16.6320183614      -17.7723056141       -3.2050546549  W2        1402            0.0000000000
      4205      1402  TIP3      H1            -15.7004683614      -17.6433056141       -3.0267446549  W2        1402            0.0000000000
      4206      1402  TIP3      H2            -16.8469883614      -17.1028756141       -3.8545846549  W2        1402            0.0000000000
      4207      1403  TIP3      OH2           -10.7083483614      -20.1665656141        3.5759053451  W2        1403            0.0000000000
      4208      1403  TIP3      H1            -11.3851883614      -20.0352556141        4.2398753451  W2        1403            0.0000000000
      4209      1403  TIP3      H2            -11.1938583614      -20.3216156141        2.7656753451  W2        1403            0.0000000000
      4210      1404  TIP3      OH2           -17.9579983614      -16.5780856141       -5.6384446549  W2        1404            0.0000000000
      4211      1404  TIP3      H1            -18.5004883614      -16.9577056141       -6.3296846549  W2        1404            0.0000000000
      4212      1404  TIP3      H2            -17.1245083614      -16.3836156141       -6.0670346549  W2        1404            0.0000000000
      4213      1405  TIP3      OH2            -7.4208383614       -4.4950256141        9.8526653451  W2        1405            0.0000000000
      4214      1405  TIP3      H1             -7.2209683614       -4.0708356141        9.0181953451  W2        1405            0.0000000000
      4215      1405  TIP3      H2             -6.7654683614       -4.1512056141       10.4597053451  W2        1405            0.0000000000
      4216      1406  TIP3      OH2           -19.8228583614      -12.0208956141        9.4607153451  W2        1406            0.0000000000
      4217      1406  TIP3      H1            -19.0906183614      -11.7663056141       10.0221653451  W2        1406            0.0000000000
      4218      1406  TIP3      H2            -20.6029883614      -11.8163556141        9.9762553451  W2        1406            0.0000000000
      4219      1407  TIP3      OH2           -13.7935683614      -16.6138956141        2.1986853451  W2        1407            0.0000000000
      4220      1407  TIP3      H1            -13.2292283614      -17.1602356141        1.6516453451  W2        1407            0.0000000000
      4221      1407  TIP3      H2            -13.9412283614      -17.1357056141        2.9874453451  W2        1407            0.0000000000
      4222      1408  TIP3      OH2           -18.7915983614      -20.4772856141       -1.3828346549  W2        1408            0.0000000000
      4223      1408  TIP3      H1            -19.1086483614      -21.3797556141       -1.4182946549  W2        1408            0.0000000000
      4224      1408  TIP3      H2            -18.0101883614      -20.4755456141       -1.9356746549  W2        1408            0.0000000000
      4225      1409  TIP3      OH2           -15.1669783614      -18.2252856141        4.6127253451  W2        1409            0.0000000000
      4226      1409  TIP3      H1            -16.0024483614      -17.7713356141        4.7229653451  W2        1409            0.0000000000
      4227      1409  TIP3      H2            -14.6429183614      -17.9494356141        5.3647153451  W2        1409            0.0000000000
      4228      1410  TIP3      OH2           -14.6227183614      -12.0125156141       -3.7026346549  W2        1410            0.0000000000
      4229      1410  TIP3      H1            -15.3676183614      -12.5199856141       -4.0248446549  W2        1410            0.0000000000
      4230      1410  TIP3      H2            -14.7569983614      -11.9637156141       -2.7561546549  W2        1410            0.0000000000
      4231      1411  TIP3      OH2            -7.4728283614      -12.8796956141        5.0841253451  W2        1411            0.0000000000
      4232      1411  TIP3      H1             -6.8309483614      -12.4230656141        4.5403453451  W2        1411            0.0000000000
      4233      1411  TIP3      H2             -8.3031383614      -12.7664556141        4.6215353451  W2        1411            0.0000000000
      4234      1412  TIP3      OH2           -10.7250383614      -19.1985256141       -5.5033746549  W2        1412            0.0000000000
      4235      1412  TIP3      H1            -11.6636183614      -19.0869656141       -5.6544946549  W2        1412            0.0000000000
      4236      1412  TIP3      H2            -10.4278283614      -18.3418356141       -5.1968046549  W2        1412            0.0000000000
      4237      1413  TIP3      OH2           -13.1035083614      -11.8281856141        7.5342753451  W2        1413            0.0000000000
      4238      1413  TIP3      H1            -13.4488983614      -12.2099456141        8.3412353451  W2        1413            0.0000000000
      4239      1413  TIP3      H2            -13.3034983614      -10.8948256141        7.6055653451  W2        1413            0.0000000000
      4240      1414  TIP3      OH2           -10.0066883614      -17.3312556141       -3.8426346549  W2        1414            0.0000000000
      4241      1414  TIP3      H1             -9.1147883614      -17.4687556141       -3.5235146549  W2        1414            0.0000000000
      4242      1414  TIP3      H2             -9.9503283614      -16.5406456141       -4.3792846549  W2        1414            0.0000000000
      4243      1415  TIP3      OH2           -19.4978883614      -12.7175156141        2.0671553451  W2        1415            0.0000000000
      4244      1415  TIP3      H1            -18.7531683614      -12.7199456141        1.4658053451  W2        1415            0.0000000000
      4245      1415  TIP3      H2            -19.4202283614      -13.5411356141        2.5486653451  W2        1415            0.0000000000
      4246      1416  TIP3      OH2           -12.4973083614      -10.5540856141       -4.6771746549  W2        1416            0.0000000000
      4247      1416  TIP3      H1            -12.7924683614       -9.7272956141       -4.2956946549  W2        1416            0.0000000000
      4248      1416  TIP3      H2            -13.2003083614      -11.1733956141       -4.4810346549  W2        1416            0.0000000000
      4249      1417  TIP3      OH2           -22.4899183614      -14.2568256141        7.3820053451  W2        1417            0.0000000000
      4250      1417  TIP3      H1            -22.2670583614      -14.6748656141        8.2137553451  W2        1417            0.0000000000
      4251      1417  TIP3      H2            -23.0919083614      -14.8693256141        6.9592853451  W2        1417            0.0000000000
      4252      1418  TIP3      OH2           -15.4734283614      -14.7398356141        9.5949753451  W2        1418            0.0000000000
      4253      1418  TIP3      H1            -15.7693483614      -14.9055356141        8.6998853451  W2        1418            0.0000000000
      4254      1418  TIP3      H2            -14.5419083614      -14.9598056141        9.5843653451  W2        1418            0.0000000000
      4255      1419  TIP3      OH2           -10.8531483614       -9.3666356141        7.4847753451  W2        1419            0.0000000000
      4256      1419  TIP3      H1            -11.7537183614       -9.1833756141        7.2171653451  W2        1419            0.0000000000
      4257      1419  TIP3      H2            -10.8190383614       -9.1077056141        8.4056553451  W2        1419            0.0000000000
      4258      1420  TIP3      OH2            -5.1218183614      -17.1218456141       -4.1479646549  W2        1420            0.0000000000
      4259      1420  TIP3      H1             -5.6761883614      -17.5180456141       -4.8202146549  W2        1420            0.0000000000
      4260      1420  TIP3      H2             -5.0214583614      -16.2113256141       -4.4256346549  W2        1420            0.0000000000
      4261      1421  TIP3      OH2            -5.1586183614      -11.3216756141        8.6891853451  W2        1421            0.0000000000
      4262      1421  TIP3      H1             -6.0097683614      -11.0832956141        8.3218253451  W2        1421            0.0000000000
      4263      1421  TIP3      H2             -4.5682783614      -11.3383556141        7.9358953451  W2        1421            0.0000000000
      4264      1422  TIP3      OH2            -6.8266483614       -8.3358056141       -3.6827546549  W2        1422            0.0000000000
      4265      1422  TIP3      H1             -7.1995383614       -9.1614256141       -3.3736946549  W2        1422            0.0000000000
      4266      1422  TIP3      H2             -6.5492983614       -8.5188656141       -4.5804146549  W2        1422            0.0000000000
      4267      1423  TIP3      OH2            -9.6662583614      -13.5278556141        3.3384353451  W2        1423            0.0000000000
      4268      1423  TIP3      H1            -10.5945683614      -13.7596656141        3.3113653451  W2        1423            0.0000000000
      4269      1423  TIP3      H2             -9.2151483614      -14.3048756141        3.0083153451  W2        1423            0.0000000000
      4270      1424  TIP3      OH2           -17.1229483614       -9.1996956141       -0.5286946549  W2        1424            0.0000000000
      4271      1424  TIP3      H1            -16.5957283614       -8.4262556141       -0.7288146549  W2        1424            0.0000000000
      4272      1424  TIP3      H2            -18.0030983614       -8.9747756141       -0.8302946549  W2        1424            0.0000000000
      4273      1425  TIP3      OH2           -21.3681783614      -14.3372856141       -5.9414546549  W2        1425            0.0000000000
      4274      1425  TIP3      H1            -20.7521883614      -13.7105656141       -5.5619746549  W2        1425            0.0000000000
      4275      1425  TIP3      H2            -22.2299183614      -14.0213056141       -5.6698046549  W2        1425            0.0000000000
      4276      1426  TIP3      OH2           -15.6957183614      -11.5367056141       -0.9522646549  W2        1426            0.0000000000
      4277      1426  TIP3      H1            -15.9367183614      -10.6112656141       -0.9107346549  W2        1426            0.0000000000
      4278      1426  TIP3      H2            -16.4363583614      -11.9955756141       -0.5558746549  W2        1426            0.0000000000
      4279      1427  TIP3      OH2           -15.1810583614       -7.3873456141        5.3628453451  W2        1427            0.0000000000
      4280      1427  TIP3      H1            -14.8185883614       -6.5327856141        5.1292853451  W2        1427            0.0000000000
      4281      1427  TIP3      H2            -14.6495383614       -7.6791856141        6.1034753451  W2        1427            0.0000000000
      4282      1428  TIP3      OH2           -17.0126383614       -6.5149456141       -1.4070446549  W2        1428            0.0000000000
      4283      1428  TIP3      H1            -17.9625883614       -6.4092056141       -1.3557146549  W2        1428            0.0000000000
      4284      1428  TIP3      H2            -16.6608283614       -5.6942056141       -1.0622946549  W2        1428            0.0000000000
      4285      1429  TIP3      OH2           -11.6369783614      -11.2882756141        5.0634053451  W2        1429            0.0000000000
      4286      1429  TIP3      H1            -12.0628483614      -11.5161056141        5.8898053451  W2        1429            0.0000000000
      4287      1429  TIP3      H2            -11.0563983614      -12.0270956141        4.8809353451  W2        1429            0.0000000000
      4288      1430  TIP3      OH2            -9.4340883614      -10.3592256141       -5.8626946549  W2        1430            0.0000000000
      4289      1430  TIP3      H1             -9.0807783614      -10.7392456141       -5.0583446549  W2        1430            0.0000000000
      4290      1430  TIP3      H2            -10.3827383614      -10.4527456141       -5.7757646549  W2        1430            0.0000000000
      4291      1431  TIP3      OH2            -8.9785583614       -6.7363256141        7.5328853451  W2        1431            0.0000000000
      4292      1431  TIP3      H1             -9.5802383614       -7.2920356141        7.0375153451  W2        1431            0.0000000000
      4293      1431  TIP3      H2             -8.6971883614       -6.0693456141        6.9066253451  W2        1431            0.0000000000
      4294      1432  TIP3      OH2            -4.9306483614       -5.8799756141       -5.6616746549  W2        1432            0.0000000000
      4295      1432  TIP3      H1             -4.1868583614       -5.2939256141       -5.8015146549  W2        1432            0.0000000000
      4296      1432  TIP3      H2             -5.6248383614       -5.3113956141       -5.3284346549  W2        1432            0.0000000000
      4297      1433  TIP3      OH2           -20.8559683614      -19.5035556141        6.9401453451  W2        1433            0.0000000000
      4298      1433  TIP3      H1            -21.7487383614      -19.1650156141        6.8725453451  W2        1433            0.0000000000
      4299      1433  TIP3      H2            -20.9546883614      -20.3589456141        7.3582253451  W2        1433            0.0000000000
      4300      1434  TIP3      OH2            -8.5681583614      -11.6870256141       -3.6359046549  W2        1434            0.0000000000
      4301      1434  TIP3      H1             -8.8453983614      -12.4150956141       -3.0797946549  W2        1434            0.0000000000
      4302      1434  TIP3      H2             -7.6408583614      -11.5678256141       -3.4306446549  W2        1434            0.0000000000
      4303      1435  TIP3      OH2           -21.2047683614       -7.6991156141        5.3750853451  W2        1435            0.0000000000
      4304      1435  TIP3      H1            -20.9877383614       -8.6308756141        5.3440553451  W2        1435            0.0000000000
      4305      1435  TIP3      H2            -20.9584183614       -7.4246156141        6.2583653451  W2        1435            0.0000000000
      4306      1436  TIP3      OH2           -15.3433083614       -9.2476156141       -7.4156946549  W2        1436            0.0000000000
      4307      1436  TIP3      H1            -15.1043283614       -9.9958056141       -7.9628046549  W2        1436            0.0000000000
      4308      1436  TIP3      H2            -15.6121783614       -9.6354456141       -6.5829146549  W2        1436            0.0000000000
      4309      1437  TIP3      OH2           -16.4062483614       -9.6772356141       -4.9594346549  W2        1437            0.0000000000
      4310      1437  TIP3      H1            -16.2594483614      -10.1972556141       -4.1693446549  W2        1437            0.0000000000
      4311      1437  TIP3      H2            -16.4090783614       -8.7704756141       -4.6528446549  W2        1437            0.0000000000
      4312      1438  TIP3      OH2           -19.9531383614      -12.4249056141       -4.4488946549  W2        1438            0.0000000000
      4313      1438  TIP3      H1            -20.6392083614      -12.0726556141       -3.8819246549  W2        1438            0.0000000000
      4314      1438  TIP3      H2            -19.4303483614      -11.6619456141       -4.6954646549  W2        1438            0.0000000000
      4315      1439  TIP3      OH2           -12.1216283614      -19.7625256141        5.8300053451  W2        1439            0.0000000000
      4316      1439  TIP3      H1            -11.4228383614      -19.6886556141        6.4799753451  W2        1439            0.0000000000
      4317      1439  TIP3      H2            -12.5024883614      -20.6270256141        5.9842953451  W2        1439            0.0000000000
      4318      1440  TIP3      OH2           -11.3371383614      -20.1103556141       -3.0727646549  W2        1440            0.0000000000
      4319      1440  TIP3      H1            -11.1173083614      -19.6388156141       -3.8762246549  W2        1440            0.0000000000
      4320      1440  TIP3      H2            -10.7787383614      -19.7160956141       -2.4027046549  W2        1440            0.0000000000
      4321      1441  TIP3      OH2           -13.6685283614       -7.9798756141       -4.2100146549  W2        1441            0.0000000000
      4322      1441  TIP3      H1            -14.4849183614       -7.4829056141       -4.1575846549  W2        1441            0.0000000000
      4323      1441  TIP3      H2            -13.1388983614       -7.5045256141       -4.8501346549  W2        1441            0.0000000000
      4324      1442  TIP3      OH2           -14.1371483614      -18.3824756141       -2.2379246549  W2        1442            0.0000000000
      4325      1442  TIP3      H1            -13.3248883614      -17.8781556141       -2.1917546549  W2        1442            0.0000000000
      4326      1442  TIP3      H2            -14.3818483614      -18.5275056141       -1.3239646549  W2        1442            0.0000000000
      4327      1443  TIP3      OH2           -13.6015083614      -17.3962056141        6.9467353451  W2        1443            0.0000000000
      4328      1443  TIP3      H1            -13.4824783614      -16.8226656141        7.7037753451  W2        1443            0.0000000000
      4329      1443  TIP3      H2            -12.9460483614      -18.0842656141        7.0615153451  W2        1443            0.0000000000
      4330      1444  TIP3      OH2           -13.2534783614      -21.3011756141       -1.2998146549  W2        1444            0.0000000000
      4331      1444  TIP3      H1            -13.6001283614      -20.6841156141       -0.6553846549  W2        1444            0.0000000000
      4332      1444  TIP3      H2            -12.5947883614      -20.8006056141       -1.7812646549  W2        1444            0.0000000000
      4333      1445  TIP3      OH2           -16.3302183614       -6.9361556141       -4.2283246549  W2        1445            0.0000000000
      4334      1445  TIP3      H1            -16.1693483614       -6.1364056141       -4.7290646549  W2        1445            0.0000000000
      4335      1445  TIP3      H2            -16.5274383614       -6.6295556141       -3.3432646549  W2        1445            0.0000000000
      4336      1446  TIP3      OH2           -17.5957783614      -20.2382356141       -4.6125646549  W2        1446            0.0000000000
      4337      1446  TIP3      H1            -17.6792983614      -19.3499256141       -4.2659246549  W2        1446            0.0000000000
      4338      1446  TIP3      H2            -16.7057483614      -20.5035656141       -4.3808846549  W2        1446            0.0000000000
      4339      1447  TIP3      OH2            -7.3969283614      -19.4891756141        7.7817053451  W2        1447            0.0000000000
      4340      1447  TIP3      H1             -8.3133483614      -19.2270056141        7.6940753451  W2        1447            0.0000000000
      4341      1447  TIP3      H2             -7.0614283614      -19.4922756141        6.8852353451  W2        1447            0.0000000000
      4342      1448  TIP3      OH2            -8.7948283614      -15.7390756141        1.8774353451  W2        1448            0.0000000000
      4343      1448  TIP3      H1             -9.5923883614      -16.1540556141        1.5489353451  W2        1448            0.0000000000
      4344      1448  TIP3      H2             -8.3497183614      -16.4297056141        2.3684853451  W2        1448            0.0000000000
      4345      1449  TIP3      OH2           -19.3372483614       -9.8110156141       -5.5521146549  W2        1449            0.0000000000
      4346      1449  TIP3      H1            -18.7450983614       -9.1115356141       -5.2758746549  W2        1449            0.0000000000
      4347      1449  TIP3      H2            -18.8779483614      -10.2440656141       -6.2716546549  W2        1449            0.0000000000
      4348      1450  TIP3      OH2           -21.0213283614      -17.1467156141       -6.4361746549  W2        1450            0.0000000000
      4349      1450  TIP3      H1            -21.0660683614      -16.2074056141       -6.2574746549  W2        1450            0.0000000000
      4350      1450  TIP3      H2            -21.9090083614      -17.3822256141       -6.7059646549  W2        1450            0.0000000000
      4351      1451  TIP3      OH2            -7.7083683614       -6.4828256141        3.4997853451  W2        1451            0.0000000000
      4352      1451  TIP3      H1             -7.8639383614       -5.8043856141        2.8427153451  W2        1451            0.0000000000
      4353      1451  TIP3      H2             -6.7757283614       -6.4108956141        3.7028453451  W2        1451            0.0000000000
      4354      1452  TIP3      OH2           -20.2131283614      -22.3650556141        2.2369253451  W2        1452            0.0000000000
      4355      1452  TIP3      H1            -20.4421483614      -22.3058056141        1.3094253451  W2        1452            0.0000000000
      4356      1452  TIP3      H2            -20.6557883614      -23.1565056141        2.5433353451  W2        1452            0.0000000000
      4357      1453  TIP3      OH2           -21.2827983614       -8.4243456141       -1.6024946549  W2        1453            0.0000000000
      4358      1453  TIP3      H1            -22.1149383614       -7.9520756141       -1.5753546549  W2        1453            0.0000000000
      4359      1453  TIP3      H2            -20.7369683614       -7.9145856141       -2.2011846549  W2        1453            0.0000000000
      4360      1454  TIP3      OH2           -21.9944283614       -5.8119756141        9.7273053451  W2        1454            0.0000000000
      4361      1454  TIP3      H1            -21.4542083614       -6.0285756141       10.4872253451  W2        1454            0.0000000000
      4362      1454  TIP3      H2            -22.4756283614       -6.6173756141        9.5375553451  W2        1454            0.0000000000
      4363      1455  TIP3      OH2           -17.3970883614       -6.8925356141       11.3477253451  W2        1455            0.0000000000
      4364      1455  TIP3      H1            -16.6293683614       -7.3514556141       11.6886453451  W2        1455            0.0000000000
      4365      1455  TIP3      H2            -17.4184683614       -7.1185556141       10.4178453451  W2        1455            0.0000000000
      4366      1456  TIP3      OH2           -13.3051283614       -7.3844756141       -7.2770946549  W2        1456            0.0000000000
      4367      1456  TIP3      H1            -13.9490283614       -8.0156156141       -6.9557246549  W2        1456            0.0000000000
      4368      1456  TIP3      H2            -12.5432983614       -7.9156756141       -7.5087446549  W2        1456            0.0000000000
      4369      1457  TIP3      OH2           -10.8202183614       -8.5124256141       10.0768753451  W2        1457            0.0000000000
      4370      1457  TIP3      H1            -11.1712683614       -9.3691256141       10.3199153451  W2        1457            0.0000000000
      4371      1457  TIP3      H2            -10.0938983614       -8.3697556141       10.6837753451  W2        1457            0.0000000000
      4372      1458  TIP3      OH2            -8.7008383614       -7.5674856141       -7.0432946549  W2        1458            0.0000000000
      4373      1458  TIP3      H1             -8.4177983614       -8.3619656141       -6.5906046549  W2        1458            0.0000000000
      4374      1458  TIP3      H2             -7.9610483614       -7.3343856141       -7.6041846549  W2        1458            0.0000000000
      4375      1459  TIP3      OH2           -22.0874783614      -12.0015656141       10.6817353451  W2        1459            0.0000000000
      4376      1459  TIP3      H1            -21.9434283614      -12.9034956141       10.3954053451  W2        1459            0.0000000000
      4377      1459  TIP3      H2            -22.8597383614      -11.7153556141       10.1939653451  W2        1459            0.0000000000
      4378      1460  TIP3      OH2           -17.7461083614      -11.6579956141       -7.1858046549  W2        1460            0.0000000000
      4379      1460  TIP3      H1            -17.6816983614      -12.4520356141       -6.6551646549  W2        1460            0.0000000000
      4380      1460  TIP3      H2            -17.0931883614      -11.7767156141       -7.8756046549  W2        1460            0.0000000000
      4381      1461  TIP3      OH2           -15.4318683614      -12.0317556141       10.1143753451  W2        1461            0.0000000000
      4382      1461  TIP3      H1            -15.7604883614      -11.7609456141        9.2571153451  W2        1461            0.0000000000
      4383      1461  TIP3      H2            -15.2800483614      -12.9727756141       10.0268753451  W2        1461            0.0000000000
      4384      1462  TIP3      OH2           -12.3937683614      -10.6108256141       -7.4500046549  W2        1462            0.0000000000
      4385      1462  TIP3      H1            -12.6623583614      -10.4306156141       -6.5491146549  W2        1462            0.0000000000
      4386      1462  TIP3      H2            -12.6002083614      -11.5362056141       -7.5814246549  W2        1462            0.0000000000
      4387      1463  TIP3      OH2            -9.6973483614      -12.1160256141        7.4976053451  W2        1463            0.0000000000
      4388      1463  TIP3      H1             -8.9518683614      -11.5276556141        7.3780053451  W2        1463            0.0000000000
      4389      1463  TIP3      H2            -10.4546683614      -11.5340556141        7.5609153451  W2        1463            0.0000000000
      4390      1464  TIP3      OH2           -21.2548283614      -14.8012356141       10.1016653451  W2        1464            0.0000000000
      4391      1464  TIP3      H1            -20.8467083614      -15.6585756141        9.9807253451  W2        1464            0.0000000000
      4392      1464  TIP3      H2            -21.5150683614      -14.7871056141       11.0226953451  W2        1464            0.0000000000
      4393      1465  TIP3      OH2           -16.5967283614      -13.6853756141       -4.8800046549  W2        1465            0.0000000000
      4394      1465  TIP3      H1            -17.0565283614      -14.1695456141       -4.1941546549  W2        1465            0.0000000000
      4395      1465  TIP3      H2            -16.3418583614      -14.3538356141       -5.5159546549  W2        1465            0.0000000000
      4396      1466  TIP3      OH2           -17.3077983614      -15.7926656141        7.4759553451  W2        1466            0.0000000000
      4397      1466  TIP3      H1            -17.9261883614      -15.1180056141        7.7564253451  W2        1466            0.0000000000
      4398      1466  TIP3      H2            -16.9636783614      -15.4712756141        6.6425753451  W2        1466            0.0000000000
      4399      1467  TIP3      OH2           -15.5256883614      -15.4421956141       -6.6176846549  W2        1467            0.0000000000
      4400      1467  TIP3      H1            -15.7061883614      -15.5970756141       -7.5448546549  W2        1467            0.0000000000
      4401      1467  TIP3      H2            -14.5756383614      -15.3343256141       -6.5728946549  W2        1467            0.0000000000
      4402      1468  TIP3      OH2           -12.2879783614      -13.3211356141       10.7534353451  W2        1468            0.0000000000
      4403      1468  TIP3      H1            -11.3348583614      -13.2372256141       10.7260353451  W2        1468            0.0000000000
      4404      1468  TIP3      H2            -12.4485183614      -14.0329556141       11.3729253451  W2        1468            0.0000000000
      4405      1469  TIP3      OH2            -6.1358583614      -13.0877756141       -7.1718746549  W2        1469            0.0000000000
      4406      1469  TIP3      H1             -6.4093783614      -13.5122256141       -7.9850446549  W2        1469            0.0000000000
      4407      1469  TIP3      H2             -6.0964483614      -12.1563256141       -7.3888346549  W2        1469            0.0000000000
      4408      1470  TIP3      OH2           -16.9684283614      -18.4375856141        8.5582653451  W2        1470            0.0000000000
      4409      1470  TIP3      H1            -16.8183383614      -19.1664556141        7.9562353451  W2        1470            0.0000000000
      4410      1470  TIP3      H2            -16.9661883614      -17.6604156141        7.9994853451  W2        1470            0.0000000000
      4411      1471  TIP3      OH2           -16.5558583614      -20.0680056141        6.0510053451  W2        1471            0.0000000000
      4412      1471  TIP3      H1            -16.0201083614      -19.6163356141        5.3989353451  W2        1471            0.0000000000
      4413      1471  TIP3      H2            -17.4078983614      -20.1760256141        5.6284153451  W2        1471            0.0000000000
      4414      1472  TIP3      OH2           -14.9740183614      -14.6283856141        6.2905253451  W2        1472            0.0000000000
      4415      1472  TIP3      H1            -14.2235383614      -14.7846356141        5.7173053451  W2        1472            0.0000000000
      4416      1472  TIP3      H2            -15.3131883614      -13.7767256141        6.0150753451  W2        1472            0.0000000000
      4417      1473  TIP3      OH2           -10.5583983614      -16.8132056141       11.3190553451  W2        1473            0.0000000000
      4418      1473  TIP3      H1            -10.3662683614      -17.7442656141       11.2075053451  W2        1473            0.0000000000
      4419      1473  TIP3      H2             -9.7007683614      -16.3882556141       11.3085953451  W2        1473            0.0000000000
      4420      1474  TIP3      OH2            -9.2416783614      -14.0246856141        9.3963253451  W2        1474            0.0000000000
      4421      1474  TIP3      H1             -9.5231783614      -13.3152256141        8.8187053451  W2        1474            0.0000000000
      4422      1474  TIP3      H2             -8.2992483614      -14.0973856141        9.2454453451  W2        1474            0.0000000000
      4423      1475  TIP3      OH2           -18.4897983614      -17.2392356141       10.4698253451  W2        1475            0.0000000000
      4424      1475  TIP3      H1            -19.2568983614      -17.7717556141       10.2595853451  W2        1475            0.0000000000
      4425      1475  TIP3      H2            -17.8108983614      -17.5491956141        9.8704553451  W2        1475            0.0000000000
      4426      1476  TIP3      OH2           -15.7503083614      -22.6114356141        6.4823653451  W2        1476            0.0000000000
      4427      1476  TIP3      H1            -15.8483483614      -21.6651156141        6.3769853451  W2        1476            0.0000000000
      4428      1476  TIP3      H2            -16.4926883614      -22.9840556141        6.0067153451  W2        1476            0.0000000000
      4429      1477  TIP3      OH2           -14.4862583614      -18.2898956141       10.0462053451  W2        1477            0.0000000000
      4430      1477  TIP3      H1            -14.7217183614      -18.5092256141       10.9476953451  W2        1477            0.0000000000
      4431      1477  TIP3      H2            -15.2695683614      -18.4967756141        9.5364553451  W2        1477            0.0000000000
      4432      1478  TIP3      OH2           -11.7705983614      -19.1625456141        9.1215553451  W2        1478            0.0000000000
      4433      1478  TIP3      H1            -12.7180583614      -19.1305756141        9.2538853451  W2        1478            0.0000000000
      4434      1478  TIP3      H2            -11.4579283614      -19.7878356141        9.7753753451  W2        1478            0.0000000000
      4435      1479  TIP3      OH2           -10.1364483614      -20.5284356141       11.1267453451  W2        1479            0.0000000000
      4436      1479  TIP3      H1            -10.2332683614      -21.4807056141       11.1209353451  W2        1479            0.0000000000
      4437      1479  TIP3      H2            -10.4581383614      -20.2597556141       11.9872953451  W2        1479            0.0000000000
      4438      1480  TIP3      OH2           -20.3095183614      -19.3188556141       10.1742953451  W2        1480            0.0000000000
      4439      1480  TIP3      H1            -20.0977783614      -20.0252456141        9.5640453451  W2        1480            0.0000000000
      4440      1480  TIP3      H2            -20.4207683614      -19.7562556141       11.0184153451  W2        1480            0.0000000000
      4441      1481  TIP3      OH2           -15.5284983614      -23.3176956141        9.1536453451  W2        1481            0.0000000000
      4442      1481  TIP3      H1            -14.8166583614      -23.9574756141        9.1395553451  W2        1481            0.0000000000
      4443      1481  TIP3      H2            -15.6294583614      -23.0508656141        8.2399553451  W2        1481            0.0000000000
      4444      1482  TIP3      OH2           -15.1747483614      -21.6348556141       11.2072753451  W2        1482            0.0000000000
      4445      1482  TIP3      H1            -15.3065283614      -22.1104756141       10.3871253451  W2        1482            0.0000000000
      4446      1482  TIP3      H2            -15.7740083614      -20.8904956141       11.1519853451  W2        1482            0.0000000000
      4447      1483  TIP3      OH2           -15.6285183614       -4.7518256141       -5.6163246549  W2        1483            0.0000000000
      4448      1483  TIP3      H1            -14.6954483614       -4.5939556141       -5.4724846549  W2        1483            0.0000000000
      4449      1483  TIP3      H2            -15.8926383614       -4.0765256141       -6.2411746549  W2        1483            0.0000000000
      4450      1484  TIP3      OH2           -22.0600283614      -10.1154456141       -6.1335146549  W2        1484            0.0000000000
      4451      1484  TIP3      H1            -21.1461083614      -10.0365556141       -5.8601246549  W2        1484            0.0000000000
      4452      1484  TIP3      H2            -22.0527183614      -10.8024856141       -6.7999546549  W2        1484            0.0000000000
      4453      1485  TIP3      OH2           -23.4109683614       -4.7225956141       -1.0561246549  W2        1485            0.0000000000
      4454      1485  TIP3      H1            -24.0582583614       -5.1844256141       -1.5890046549  W2        1485            0.0000000000
      4455      1485  TIP3      H2            -23.0565083614       -5.3942656141       -0.4735046549  W2        1485            0.0000000000
      4456      1486  TIP3      OH2           -22.5410483614       -6.6418956141        0.7484953451  W2        1486            0.0000000000
      4457      1486  TIP3      H1            -22.8753683614       -7.5221656141        0.9205153451  W2        1486            0.0000000000
      4458      1486  TIP3      H2            -22.3188083614       -6.2963956141        1.6130553451  W2        1486            0.0000000000
      4459      1487  TIP3      OH2            -4.9925683614       -5.8322556141        3.7289753451  W2        1487            0.0000000000
      4460      1487  TIP3      H1             -5.0138983614       -5.6474156141        4.6679153451  W2        1487            0.0000000000
      4461      1487  TIP3      H2             -4.3019483614       -5.2638556141        3.3881153451  W2        1487            0.0000000000
      4462      1488  TIP3      OH2            -5.4292783614       -6.2651456141        6.6508853451  W2        1488            0.0000000000
      4463      1488  TIP3      H1             -5.9164083614       -7.0007356141        6.2796253451  W2        1488            0.0000000000
      4464      1488  TIP3      H2             -4.8800083614       -6.6587556141        7.3288253451  W2        1488            0.0000000000
      4465      1489  TIP3      OH2            -6.9785483614      -10.4753356141       11.2889153451  W2        1489            0.0000000000
      4466      1489  TIP3      H1             -7.8444383614      -10.5803656141       11.6831453451  W2        1489            0.0000000000
      4467      1489  TIP3      H2             -6.6019583614       -9.7170056141       11.7353853451  W2        1489            0.0000000000
      4468      1490  TIP3      OH2            -5.6775783614      -12.2189656141       -3.1968346549  W2        1490            0.0000000000
      4469      1490  TIP3      H1             -4.8274383614      -11.7978756141       -3.0696746549  W2        1490            0.0000000000
      4470      1490  TIP3      H2             -5.6720683614      -12.9589556141       -2.5896946549  W2        1490            0.0000000000
      4471      1491  TIP3      OH2            -5.2830183614      -14.1652256141       -1.3732646549  W2        1491            0.0000000000
      4472      1491  TIP3      H1             -6.0095583614      -14.6449656141       -0.9755046549  W2        1491            0.0000000000
      4473      1491  TIP3      H2             -4.7016883614      -13.9597556141       -0.6411046549  W2        1491            0.0000000000
      4474      1492  TIP3      OH2            -5.5238983614      -11.3804756141        3.5744953451  W2        1492            0.0000000000
      4475      1492  TIP3      H1             -4.6904783614      -11.7584756141        3.2938553451  W2        1492            0.0000000000
      4476      1492  TIP3      H2             -5.4118683614      -10.4373556141        3.4554053451  W2        1492            0.0000000000
      4477      1493  TIP3      OH2            -7.0376683614       -8.5027256141        5.8813353451  W2        1493            0.0000000000
      4478      1493  TIP3      H1             -7.6851383614       -8.1775756141        6.5068553451  W2        1493            0.0000000000
      4479      1493  TIP3      H2             -7.5552683614       -8.9429556141        5.2071653451  W2        1493            0.0000000000
      4480      1494  TIP3      OH2            -5.0147083614      -14.2643756141       -4.9821346549  W2        1494            0.0000000000
      4481      1494  TIP3      H1             -5.5365983614      -13.9079656141       -5.7010446549  W2        1494            0.0000000000
      4482      1494  TIP3      H2             -5.0477883614      -13.5895956141       -4.3040446549  W2        1494            0.0000000000
      4483      1495  TIP3      OH2            -6.6658083614      -17.0248156141       -6.4314246549  W2        1495            0.0000000000
      4484      1495  TIP3      H1             -6.5693683614      -16.3581156141       -7.1114546549  W2        1495            0.0000000000
      4485      1495  TIP3      H2             -6.8058483614      -17.8401856141       -6.9128746549  W2        1495            0.0000000000
      4486      1496  TIP3      OH2            -7.4963383614      -15.6445756141       -0.8103946549  W2        1496            0.0000000000
      4487      1496  TIP3      H1             -7.6464583614      -16.5897156141       -0.8306146549  W2        1496            0.0000000000
      4488      1496  TIP3      H2             -7.8498883614      -15.3634356141        0.0335153451  W2        1496            0.0000000000
      4489      1497  TIP3      OH2           -22.4610983614      -13.5663556141        3.1999853451  W2        1497            0.0000000000
      4490      1497  TIP3      H1            -22.2768083614      -13.6481856141        2.2642753451  W2        1497            0.0000000000
      4491      1497  TIP3      H2            -21.6118083614      -13.6906556141        3.6236253451  W2        1497            0.0000000000
      4492      1498  TIP3      OH2            -6.6400483614      -13.6742456141        8.8284353451  W2        1498            0.0000000000
      4493      1498  TIP3      H1             -6.0573183614      -14.4090156141        9.0201553451  W2        1498            0.0000000000
      4494      1498  TIP3      H2             -6.0761183614      -12.9022156141        8.8750153451  W2        1498            0.0000000000
      4495      1499  TIP3      OH2            -5.1433383614      -15.7716656141        9.5129753451  W2        1499            0.0000000000
      4496      1499  TIP3      H1             -6.0066683614      -16.1504556141        9.3474453451  W2        1499            0.0000000000
      4497      1499  TIP3      H2             -4.5389683614      -16.5101856141        9.4385553451  W2        1499            0.0000000000
      4498      1500  TIP3      OH2            -7.4184283614      -19.6168356141       -7.3138746549  W2        1500            0.0000000000
      4499      1500  TIP3      H1             -6.8078483614      -19.9881556141       -6.6770546549  W2        1500            0.0000000000
      4500      1500  TIP3      H2             -8.2552783614      -20.0381456141       -7.1178746549  W2        1500            0.0000000000
      4501      1501  TIP3      OH2            -7.7858583614      -18.0619956141       -2.3478846549  W2        1501            0.0000000000
      4502      1501  TIP3      H1             -7.5061483614      -18.9689556141       -2.2237146549  W2        1501            0.0000000000
      4503      1501  TIP3      H2             -7.0266883614      -17.6278456141       -2.7369646549  W2        1501            0.0000000000
      4504      1502  TIP3      OH2            -7.1740283614      -17.4802556141        3.0880053451  W2        1502            0.0000000000
      4505      1502  TIP3      H1             -6.2412283614      -17.2682656141        3.0536053451  W2        1502            0.0000000000
      4506      1502  TIP3      H2             -7.4092783614      -17.3790456141        4.0103053451  W2        1502            0.0000000000
      4507      1503  TIP3      OH2            -7.1448383614      -16.7437256141        5.8639453451  W2        1503            0.0000000000
      4508      1503  TIP3      H1             -7.9877083614      -16.4756856141        6.2299253451  W2        1503            0.0000000000
      4509      1503  TIP3      H2             -6.7024083614      -15.9215356141        5.6530553451  W2        1503            0.0000000000
      4510      1504  TIP3      OH2           -22.8636183614      -18.2958556141        9.3408653451  W2        1504            0.0000000000
      4511      1504  TIP3      H1            -21.9441283614      -18.4180256141        9.5771753451  W2        1504            0.0000000000
      4512      1504  TIP3      H2            -23.3131683614      -19.0458856141        9.7302153451  W2        1504            0.0000000000
      4513      1505  TIP3      OH2            -4.8616783614      -22.7637056141       11.2174453451  W2        1505            0.0000000000
      4514      1505  TIP3      H1             -4.5119783614      -23.4173556141       10.6119153451  W2        1505            0.0000000000
      4515      1505  TIP3      H2             -4.7147283614      -21.9262956141       10.7777053451  W2        1505            0.0000000000
      4516      1506  TIP3      OH2            -7.1723783614      -20.7990656141       -2.2996846549  W2        1506            0.0000000000
      4517      1506  TIP3      H1             -6.9898783614      -21.2479156141       -1.4741846549  W2        1506            0.0000000000
      4518      1506  TIP3      H2             -7.7720883614      -21.3836256141       -2.7632246549  W2        1506            0.0000000000
      4519      1507  TIP3      OH2           -21.6423683614      -19.9836956141        2.2321553451  W2        1507            0.0000000000
      4520      1507  TIP3      H1            -21.1972083614      -20.7754456141        2.5341253451  W2        1507            0.0000000000
      4521      1507  TIP3      H2            -21.1760683614      -19.2671756141        2.6627153451  W2        1507            0.0000000000
      4522      1508  TIP3      OH2           -23.3383383614      -16.9843956141        3.3011753451  W2        1508            0.0000000000
      4523      1508  TIP3      H1            -22.8463583614      -17.2053456141        2.5103753451  W2        1508            0.0000000000
      4524      1508  TIP3      H2            -22.9762483614      -16.1440556141        3.5821253451  W2        1508            0.0000000000
      4525      1509  TIP3      OH2            -5.3419583614      -20.6542456141        9.5665753451  W2        1509            0.0000000000
      4526      1509  TIP3      H1             -6.2593883614      -20.3835356141        9.5309253451  W2        1509            0.0000000000
      4527      1509  TIP3      H2             -5.2190183614      -21.1894056141        8.7825453451  W2        1509            0.0000000000
      4528      1510  TIP3      OH2            -5.3057583614      -20.7312556141       -5.7716546549  W2        1510            0.0000000000
      4529      1510  TIP3      H1             -4.8934983614      -21.4526856141       -6.2468546549  W2        1510            0.0000000000
      4530      1510  TIP3      H2             -4.6241083614      -20.0617956141       -5.7132246549  W2        1510            0.0000000000
      4531      1511  TIP3      OH2           -23.0246883614      -20.7264856141       -2.6445846549  W2        1511            0.0000000000
      4532      1511  TIP3      H1            -23.9498483614      -20.5178256141       -2.7740346549  W2        1511            0.0000000000
      4533      1511  TIP3      H2            -22.5706983614      -20.2424056141       -3.3343546549  W2        1511            0.0000000000
      4534      1512  TIP3      OH2            -8.2539683614       -5.7423156141       -0.6988446549  W2        1512            0.0000000000
      4535      1512  TIP3      H1             -7.6016783614       -6.0901056141       -1.3069346549  W2        1512            0.0000000000
      4536      1512  TIP3      H2             -7.7435883614       -5.2539956141       -0.0528746549  W2        1512            0.0000000000
      4537      1513  TIP3      OH2           -23.0611483614      -21.9885856141        5.6996653451  W2        1513            0.0000000000
      4538      1513  TIP3      H1            -23.7260983614      -22.2345556141        6.3427553451  W2        1513            0.0000000000
      4539      1513  TIP3      H2            -23.5040183614      -21.3665456141        5.1224653451  W2        1513            0.0000000000
      4540      1514  TIP3      OH2           -20.8692183614       -8.8131756141        9.8442453451  W2        1514            0.0000000000
      4541      1514  TIP3      H1            -21.6899683614       -8.6385256141        9.3837153451  W2        1514            0.0000000000
      4542      1514  TIP3      H2            -21.1214383614       -8.8867056141       10.7646853451  W2        1514            0.0000000000
      4543      1515  TIP3      OH2           -17.9149283614       -7.8390556141        6.1026453451  W2        1515            0.0000000000
      4544      1515  TIP3      H1            -18.3398183614       -7.0292056141        5.8201053451  W2        1515            0.0000000000
      4545      1515  TIP3      H2            -17.0106483614       -7.7536456141        5.8006253451  W2        1515            0.0000000000
      4546      1516  TIP3      OH2           -13.6037883614       -6.4400556141        9.0620153451  W2        1516            0.0000000000
      4547      1516  TIP3      H1            -13.4190383614       -6.7734456141        9.9400453451  W2        1516            0.0000000000
      4548      1516  TIP3      H2            -12.7573383614       -6.1301956141        8.7399353451  W2        1516            0.0000000000
      4549      1517  TIP3      OH2           -11.2587483614       -5.1541656141        8.3061553451  W2        1517            0.0000000000
      4550      1517  TIP3      H1            -10.5818583614       -5.7869356141        8.0660753451  W2        1517            0.0000000000
      4551      1517  TIP3      H2            -10.9368683614       -4.7531156141        9.1134853451  W2        1517            0.0000000000
      4552      1518  TIP3      OH2            -6.3413683614      -22.5646156141        7.3856553451  W2        1518            0.0000000000
      4553      1518  TIP3      H1             -7.1540183614      -22.2395856141        6.9981253451  W2        1518            0.0000000000
      4554      1518  TIP3      H2             -6.1085183614      -23.3247656141        6.8525653451  W2        1518            0.0000000000
      4555      1519  TIP3      OH2           -20.5132583614       -4.5826656141        6.1501753451  W2        1519            0.0000000000
      4556      1519  TIP3      H1            -21.2336183614       -4.1425656141        5.6989453451  W2        1519            0.0000000000
      4557      1519  TIP3      H2            -20.8788583614       -4.8331956141        6.9985753451  W2        1519            0.0000000000
      4558      1520  TIP3      OH2           -18.0459983614       -4.9822756141        5.1798953451  W2        1520            0.0000000000
      4559      1520  TIP3      H1            -18.9107783614       -4.9104256141        5.5839053451  W2        1520            0.0000000000
      4560      1520  TIP3      H2            -18.1010983614       -4.4355456141        4.3961453451  W2        1520            0.0000000000
      4561      1521  TIP3      OH2           -13.3354383614       -5.0943856141        4.3554953451  W2        1521            0.0000000000
      4562      1521  TIP3      H1            -13.7920383614       -4.5654156141        3.7013353451  W2        1521            0.0000000000
      4563      1521  TIP3      H2            -13.1726383614       -4.4912456141        5.0807253451  W2        1521            0.0000000000
      4564      1522  TIP3      OH2           -11.0078083614       -6.2164256141        5.3005253451  W2        1522            0.0000000000
      4565      1522  TIP3      H1            -11.9124383614       -6.0514056141        5.0347353451  W2        1522            0.0000000000
      4566      1522  TIP3      H2            -10.5789483614       -5.3632056141        5.2348653451  W2        1522            0.0000000000
      4567      1523  TIP3      OH2            -8.4036183614       -4.6465156141        5.5953053451  W2        1523            0.0000000000
      4568      1523  TIP3      H1             -8.5854183614       -3.7306256141        5.3847953451  W2        1523            0.0000000000
      4569      1523  TIP3      H2             -8.2268383614       -5.0568056141        4.7487653451  W2        1523            0.0000000000
      4570      1524  TIP3      OH2           -21.0984483614       -5.9594156141        3.0603553451  W2        1524            0.0000000000
      4571      1524  TIP3      H1            -21.1168483614       -6.3849056141        3.9175853451  W2        1524            0.0000000000
      4572      1524  TIP3      H2            -20.2936583614       -6.2779156141        2.6515753451  W2        1524            0.0000000000
      4573      1525  TIP3      OH2           -18.9571383614       -7.2495456141        1.7153453451  W2        1525            0.0000000000
      4574      1525  TIP3      H1            -19.1760683614       -8.1658056141        1.8849453451  W2        1525            0.0000000000
      4575      1525  TIP3      H2            -18.1329183614       -7.1095056141        2.1814853451  W2        1525            0.0000000000
      4576      1526  TIP3      OH2           -16.4198883614       -6.7796156141        2.5641453451  W2        1526            0.0000000000
      4577      1526  TIP3      H1            -16.2073183614       -7.6677156141        2.2772353451  W2        1526            0.0000000000
      4578      1526  TIP3      H2            -16.3553783614       -6.8138456141        3.5185453451  W2        1526            0.0000000000
      4579      1527  TIP3      OH2           -12.9115183614      -21.1155556141        1.7084753451  W2        1527            0.0000000000
      4580      1527  TIP3      H1            -13.5858383614      -21.7449956141        1.9640553451  W2        1527            0.0000000000
      4581      1527  TIP3      H2            -12.3475983614      -21.5996656141        1.1052653451  W2        1527            0.0000000000
      4582      1528  TIP3      OH2            -7.7687983614      -23.0081556141        1.8211853451  W2        1528            0.0000000000
      4583      1528  TIP3      H1             -7.1650383614      -22.4606156141        1.3192853451  W2        1528            0.0000000000
      4584      1528  TIP3      H2             -8.6385983614      -22.6891156141        1.5805953451  W2        1528            0.0000000000
      4585      1529  TIP3      OH2            -6.0417583614      -21.8692856141        0.1542753451  W2        1529            0.0000000000
      4586      1529  TIP3      H1             -5.4300083614      -22.3837156141       -0.3723646549  W2        1529            0.0000000000
      4587      1529  TIP3      H2             -5.6594183614      -20.9920756141        0.1777153451  W2        1529            0.0000000000
      4588      1530  TIP3      OH2           -20.5847683614      -22.4815256141       -0.4695346549  W2        1530            0.0000000000
      4589      1530  TIP3      H1            -21.3617883614      -22.7160356141       -0.9769446549  W2        1530            0.0000000000
      4590      1530  TIP3      H2            -20.0544083614      -23.2783156141       -0.4607346549  W2        1530            0.0000000000
      4591      1531  TIP3      OH2           -21.7484283614      -22.6837156141       -4.6659246549  W2        1531            0.0000000000
      4592      1531  TIP3      H1            -21.3093583614      -22.0726656141       -5.2575746549  W2        1531            0.0000000000
      4593      1531  TIP3      H2            -22.3821883614      -22.1453056141       -4.1919246549  W2        1531            0.0000000000
      4594      1532  TIP3      OH2           -16.0055083614      -22.5548156141       -0.6562246549  W2        1532            0.0000000000
      4595      1532  TIP3      H1            -15.1311683614      -22.1663856141       -0.6857946549  W2        1532            0.0000000000
      4596      1532  TIP3      H2            -16.1414283614      -22.7700356141        0.2664953451  W2        1532            0.0000000000
      4597      1533  TIP3      OH2           -10.4486683614      -22.5248356141        0.9929453451  W2        1533            0.0000000000
      4598      1533  TIP3      H1            -10.3725083614      -22.4296756141        0.0435453451  W2        1533            0.0000000000
      4599      1533  TIP3      H2            -10.7237483614      -23.4325456141        1.1218553451  W2        1533            0.0000000000
      4600      1534  TIP3      OH2            -9.0954083614      -22.4990556141       -3.3145546549  W2        1534            0.0000000000
      4601      1534  TIP3      H1             -9.7982983614      -21.8841356141       -3.5244146549  W2        1534            0.0000000000
      4602      1534  TIP3      H2             -9.5402683614      -23.3363856141       -3.1834646549  W2        1534            0.0000000000
      4603      1535  TIP3      OH2           -21.8474783614       -6.7354956141       -3.7684146549  W2        1535            0.0000000000
      4604      1535  TIP3      H1            -22.5324883614       -6.7736056141       -4.4359046549  W2        1535            0.0000000000
      4605      1535  TIP3      H2            -21.8437583614       -5.8227356141       -3.4802046549  W2        1535            0.0000000000
      4606      1536  TIP3      OH2           -19.8875183614      -20.7675656141       -6.2235146549  W2        1536            0.0000000000
      4607      1536  TIP3      H1            -19.3961783614      -21.3973256141       -6.7509646549  W2        1536            0.0000000000
      4608      1536  TIP3      H2            -19.2638883614      -20.4716256141       -5.5603946549  W2        1536            0.0000000000
      4609      1537  TIP3      OH2           -14.8615083614      -20.4744156141       -3.7664646549  W2        1537            0.0000000000
      4610      1537  TIP3      H1            -14.6833783614      -21.1210956141       -3.0836046549  W2        1537            0.0000000000
      4611      1537  TIP3      H2            -14.9148883614      -19.6406456141       -3.2993546549  W2        1537            0.0000000000
      4612      1538  TIP3      OH2           -12.9831283614       -5.5260056141       -5.3707946549  W2        1538            0.0000000000
      4613      1538  TIP3      H1            -12.1171083614       -5.1592656141       -5.5489746549  W2        1538            0.0000000000
      4614      1538  TIP3      H2            -13.2298483614       -5.9652056141       -6.1847146549  W2        1538            0.0000000000
      4615      1539  TIP3      OH2            -6.2741683614       -5.9629756141       -2.6916846549  W2        1539            0.0000000000
      4616      1539  TIP3      H1             -6.4684583614       -6.7107656141       -3.2567246549  W2        1539            0.0000000000
      4617      1539  TIP3      H2             -6.3131583614       -5.2049656141       -3.2748946549  W2        1539            0.0000000000
      4618      1540  TIP3      OH2           -20.6269683614      -21.9673356141        9.0480853451  W2        1540            0.0000000000
      4619      1540  TIP3      H1            -20.9931483614      -22.7330756141        9.4905553451  W2        1540            0.0000000000
      4620      1540  TIP3      H2            -19.7141183614      -21.9383156141        9.3345953451  W2        1540            0.0000000000
      4621      1541  TIP3      OH2           -18.6538883614      -22.6168956141       10.5837953451  W2        1541            0.0000000000
      4622      1541  TIP3      H1            -17.7555283614      -22.8908756141       10.3991353451  W2        1541            0.0000000000
      4623      1541  TIP3      H2            -19.0405783614      -23.3592956141       11.0480553451  W2        1541            0.0000000000
      4624      1542  TIP3      OH2           -20.0293583614       -5.8154156141       -6.7432046549  W2        1542            0.0000000000
      4625      1542  TIP3      H1            -20.2968983614       -5.5291256141       -5.8698946549  W2        1542            0.0000000000
      4626      1542  TIP3      H2            -19.2580983614       -6.3614956141       -6.5909546549  W2        1542            0.0000000000
      4627      1543  TIP3      OH2           -10.2326583614      -23.2843656141       10.7660753451  W2        1543            0.0000000000
      4628      1543  TIP3      H1            -10.1559383614      -23.7102956141       11.6198453451  W2        1543            0.0000000000
      4629      1543  TIP3      H2             -9.3389983614      -23.2708956141       10.4234253451  W2        1543            0.0000000000
      4630      1544  TIP3      OH2            -7.0565483614       -7.2117356141        9.4584953451  W2        1544            0.0000000000
      4631      1544  TIP3      H1             -7.8383583614       -7.3979356141        8.9385553451  W2        1544            0.0000000000
      4632      1544  TIP3      H2             -7.1285583614       -6.2823056141        9.6757453451  W2        1544            0.0000000000
      4633      1545  TIP3      OH2             7.3494916386      -13.3252956141       -0.5107846549  W2        1545            0.0000000000
      4634      1545  TIP3      H1              7.4386016386      -12.3814756141       -0.6430746549  W2        1545            0.0000000000
      4635      1545  TIP3      H2              6.7112516386      -13.6006556141       -1.1688446549  W2        1545            0.0000000000
      4636      1546  TIP3      OH2             6.2826216386      -14.0702256141        2.9080353451  W2        1546            0.0000000000
      4637      1546  TIP3      H1              6.2443716386      -14.7165956141        3.6129953451  W2        1546            0.0000000000
      4638      1546  TIP3      H2              5.9602716386      -14.5367856141        2.1369053451  W2        1546            0.0000000000
      4639      1547  TIP3      OH2            -1.3488783614      -14.4560156141        4.5010253451  W2        1547            0.0000000000
      4640      1547  TIP3      H1             -1.3076683614      -15.0816856141        5.2242653451  W2        1547            0.0000000000
      4641      1547  TIP3      H2             -0.6461083614      -13.8321556141        4.6830653451  W2        1547            0.0000000000
      4642      1548  TIP3      OH2             9.9886416386      -11.1311856141        1.2095453451  W2        1548            0.0000000000
      4643      1548  TIP3      H1              9.5479116386      -11.8515856141        1.6601053451  W2        1548            0.0000000000
      4644      1548  TIP3      H2              9.9756116386      -10.4104656141        1.8393153451  W2        1548            0.0000000000
      4645      1549  TIP3      OH2            -0.4255683614      -10.0061256141        3.0359353451  W2        1549            0.0000000000
      4646      1549  TIP3      H1             -0.7950483614      -10.8080756141        2.6663653451  W2        1549            0.0000000000
      4647      1549  TIP3      H2              0.5155416386      -10.1746356141        3.0822753451  W2        1549            0.0000000000
      4648      1550  TIP3      OH2            -3.8155183614      -16.3458656141       -1.5711846549  W2        1550            0.0000000000
      4649      1550  TIP3      H1             -4.2631783614      -15.4999956141       -1.5895346549  W2        1550            0.0000000000
      4650      1550  TIP3      H2             -4.3763983614      -16.9254456141       -2.0866746549  W2        1550            0.0000000000
      4651      1551  TIP3      OH2            -3.1049083614      -14.1839056141        0.5546153451  W2        1551            0.0000000000
      4652      1551  TIP3      H1             -2.8915583614      -14.9537456141        1.0819153451  W2        1551            0.0000000000
      4653      1551  TIP3      H2             -2.3671483614      -14.0942356141       -0.0486246549  W2        1551            0.0000000000
      4654      1552  TIP3      OH2             7.1001916386       -6.0270156141        1.4215853451  W2        1552            0.0000000000
      4655      1552  TIP3      H1              7.7198316386       -6.7035456141        1.1485053451  W2        1552            0.0000000000
      4656      1552  TIP3      H2              6.8919316386       -6.2449356141        2.3300753451  W2        1552            0.0000000000
      4657      1553  TIP3      OH2             4.6720616386      -11.6380856141        3.3141353451  W2        1553            0.0000000000
      4658      1553  TIP3      H1              4.9758516386      -12.3239456141        2.7195453451  W2        1553            0.0000000000
      4659      1553  TIP3      H2              5.3934616386      -11.5192156141        3.9319353451  W2        1553            0.0000000000
      4660      1554  TIP3      OH2            13.3350416386      -20.0365556141        4.1747553451  W2        1554            0.0000000000
      4661      1554  TIP3      H1             13.3842616386      -19.4264356141        4.9106653451  W2        1554            0.0000000000
      4662      1554  TIP3      H2             13.7605516386      -19.5754656141        3.4518653451  W2        1554            0.0000000000
      4663      1555  TIP3      OH2             7.8127616386      -17.2438456141        3.6416153451  W2        1555            0.0000000000
      4664      1555  TIP3      H1              7.9553516386      -18.1901456141        3.6617753451  W2        1555            0.0000000000
      4665      1555  TIP3      H2              7.7066616386      -17.0368656141        2.7131053451  W2        1555            0.0000000000
      4666      1556  TIP3      OH2             0.9675916386      -19.1422056141        0.9140953451  W2        1556            0.0000000000
      4667      1556  TIP3      H1              1.0107016386      -18.2823556141        0.4957253451  W2        1556            0.0000000000
      4668      1556  TIP3      H2              0.5100016386      -19.6947356141        0.2804153451  W2        1556            0.0000000000
      4669      1557  TIP3      OH2             8.6898616386      -19.0116456141       -0.6850746549  W2        1557            0.0000000000
      4670      1557  TIP3      H1              9.3362916386      -19.3403256141       -0.0603146549  W2        1557            0.0000000000
      4671      1557  TIP3      H2              9.1998016386      -18.4937456141       -1.3079346549  W2        1557            0.0000000000
      4672      1558  TIP3      OH2            -2.4122583614      -16.7456256141        1.6762353451  W2        1558            0.0000000000
      4673      1558  TIP3      H1             -1.7585983614      -17.2954556141        2.1082453451  W2        1558            0.0000000000
      4674      1558  TIP3      H2             -2.3883283614      -17.0197256141        0.7594353451  W2        1558            0.0000000000
      4675      1559  TIP3      OH2             2.7441916386      -15.1954956141        0.8913853451  W2        1559            0.0000000000
      4676      1559  TIP3      H1              3.3602916386      -15.7219556141        1.4007853451  W2        1559            0.0000000000
      4677      1559  TIP3      H2              2.1580716386      -15.8356256141        0.4877453451  W2        1559            0.0000000000
      4678      1560  TIP3      OH2            13.7265016386      -18.5586356141        6.4107353451  W2        1560            0.0000000000
      4679      1560  TIP3      H1             13.0379616386      -17.9005656141        6.3153953451  W2        1560            0.0000000000
      4680      1560  TIP3      H2             13.7419616386      -18.7558456141        7.3472753451  W2        1560            0.0000000000
      4681      1561  TIP3      OH2            -0.2222183614      -20.2243656141        4.9881753451  W2        1561            0.0000000000
      4682      1561  TIP3      H1             -0.4410483614      -19.6943056141        4.2217753451  W2        1561            0.0000000000
      4683      1561  TIP3      H2             -0.8901283614      -19.9978156141        5.6353153451  W2        1561            0.0000000000
      4684      1562  TIP3      OH2             7.1467616386      -10.7242556141       -1.4679146549  W2        1562            0.0000000000
      4685      1562  TIP3      H1              6.8512716386      -11.0470256141       -2.3192246549  W2        1562            0.0000000000
      4686      1562  TIP3      H2              6.8225416386       -9.8245856141       -1.4266546549  W2        1562            0.0000000000
      4687      1563  TIP3      OH2             2.3469216386      -12.5487956141        5.2755453451  W2        1563            0.0000000000
      4688      1563  TIP3      H1              1.6068316386      -11.9506456141        5.3790653451  W2        1563            0.0000000000
      4689      1563  TIP3      H2              3.0608716386      -11.9948356141        4.9599053451  W2        1563            0.0000000000
      4690      1564  TIP3      OH2            10.4537016386      -19.7207156141        1.2955153451  W2        1564            0.0000000000
      4691      1564  TIP3      H1             10.2385016386      -20.4863756141        1.8281153451  W2        1564            0.0000000000
      4692      1564  TIP3      H2             11.1094416386      -19.2482556141        1.8083653451  W2        1564            0.0000000000
      4693      1565  TIP3      OH2            -0.6284883614      -18.3321856141        2.9403953451  W2        1565            0.0000000000
      4694      1565  TIP3      H1             -0.0148583614      -17.6994256141        3.3136353451  W2        1565            0.0000000000
      4695      1565  TIP3      H2             -0.1164183614      -18.8046856141        2.2840853451  W2        1565            0.0000000000
      4696      1566  TIP3      OH2             0.7543516386      -10.5844956141        6.0626953451  W2        1566            0.0000000000
      4697      1566  TIP3      H1              0.7491116386       -9.7051456141        5.6846253451  W2        1566            0.0000000000
      4698      1566  TIP3      H2             -0.0992383614      -10.6680856141        6.4876853451  W2        1566            0.0000000000
      4699      1567  TIP3      OH2            -3.1245583614      -10.9137056141       -3.1553746549  W2        1567            0.0000000000
      4700      1567  TIP3      H1             -3.3964683614      -10.6846056141       -4.0440846549  W2        1567            0.0000000000
      4701      1567  TIP3      H2             -3.0789883614      -10.0758256141       -2.6948446549  W2        1567            0.0000000000
      4702      1568  TIP3      OH2            10.5004116386       -9.2921156141        3.5574753451  W2        1568            0.0000000000
      4703      1568  TIP3      H1              9.5587816386       -9.2337256141        3.7191653451  W2        1568            0.0000000000
      4704      1568  TIP3      H2             10.7770216386       -8.3860656141        3.4204453451  W2        1568            0.0000000000
      4705      1569  TIP3      OH2            10.8011116386      -21.0055856141        4.9748653451  W2        1569            0.0000000000
      4706      1569  TIP3      H1             10.0650316386      -20.3948756141        4.9369953451  W2        1569            0.0000000000
      4707      1569  TIP3      H2             11.4845116386      -20.5906856141        4.4485053451  W2        1569            0.0000000000
      4708      1570  TIP3      OH2             3.8042516386      -22.9188556141        2.4406653451  W2        1570            0.0000000000
      4709      1570  TIP3      H1              3.6866716386      -23.8672556141        2.3864953451  W2        1570            0.0000000000
      4710      1570  TIP3      H2              2.9492616386      -22.5862456141        2.7137753451  W2        1570            0.0000000000
      4711      1571  TIP3      OH2             8.7525316386       -7.5107656141        0.1826353451  W2        1571            0.0000000000
      4712      1571  TIP3      H1              9.1777616386       -8.2179756141       -0.3024046549  W2        1571            0.0000000000
      4713      1571  TIP3      H2              9.0695316386       -6.7094956141       -0.2341446549  W2        1571            0.0000000000
      4714      1572  TIP3      OH2             9.9121816386       -9.6099156141       -1.3087046549  W2        1572            0.0000000000
      4715      1572  TIP3      H1              9.6546616386      -10.2999056141       -1.9201146549  W2        1572            0.0000000000
      4716      1572  TIP3      H2              9.9832616386      -10.0527956141       -0.4631146549  W2        1572            0.0000000000
      4717      1573  TIP3      OH2            11.5982016386      -11.0432456141        7.1686453451  W2        1573            0.0000000000
      4718      1573  TIP3      H1             11.7378316386      -11.6349956141        6.4293453451  W2        1573            0.0000000000
      4719      1573  TIP3      H2             11.7654816386      -10.1706556141        6.8125253451  W2        1573            0.0000000000
      4720      1574  TIP3      OH2             6.0707416386      -14.0812956141       -3.0587546549  W2        1574            0.0000000000
      4721      1574  TIP3      H1              5.3592916386      -13.5463256141       -3.4107046549  W2        1574            0.0000000000
      4722      1574  TIP3      H2              6.7617016386      -14.0260856141       -3.7188646549  W2        1574            0.0000000000
      4723      1575  TIP3      OH2             6.1246616386      -15.6238656141       -6.0202546549  W2        1575            0.0000000000
      4724      1575  TIP3      H1              6.8256516386      -15.6011756141       -5.3688546549  W2        1575            0.0000000000
      4725      1575  TIP3      H2              6.4269516386      -16.2518956141       -6.6763246549  W2        1575            0.0000000000
      4726      1576  TIP3      OH2            13.4401316386      -14.7034456141        5.2346853451  W2        1576            0.0000000000
      4727      1576  TIP3      H1             12.7875416386      -14.0088856141        5.3237753451  W2        1576            0.0000000000
      4728      1576  TIP3      H2             13.9051616386      -14.4933556141        4.4248453451  W2        1576            0.0000000000
      4729      1577  TIP3      OH2             9.4765116386      -13.8719656141       -2.1071646549  W2        1577            0.0000000000
      4730      1577  TIP3      H1              8.7446116386      -13.6435956141       -1.5341046549  W2        1577            0.0000000000
      4731      1577  TIP3      H2              9.9237316386      -14.5856956141       -1.6524146549  W2        1577            0.0000000000
      4732      1578  TIP3      OH2             9.3738616386      -15.6977056141        6.9605353451  W2        1578            0.0000000000
      4733      1578  TIP3      H1              9.4537716386      -14.9342656141        7.5323853451  W2        1578            0.0000000000
      4734      1578  TIP3      H2              8.7726316386      -15.4184656141        6.2700453451  W2        1578            0.0000000000
      4735      1579  TIP3      OH2             1.1218816386      -13.2413456141       -0.2246646549  W2        1579            0.0000000000
      4736      1579  TIP3      H1              0.7914016386      -13.6120056141       -1.0429646549  W2        1579            0.0000000000
      4737      1579  TIP3      H2              1.7102916386      -13.9119456141        0.1221653451  W2        1579            0.0000000000
      4738      1580  TIP3      OH2             2.4886316386       -9.8132856141        2.4565553451  W2        1580            0.0000000000
      4739      1580  TIP3      H1              2.3937616386      -10.3919756141        1.7000153451  W2        1580            0.0000000000
      4740      1580  TIP3      H2              3.2179916386      -10.1847156141        2.9528353451  W2        1580            0.0000000000
      4741      1581  TIP3      OH2             1.4884316386      -14.4727856141        3.4088353451  W2        1581            0.0000000000
      4742      1581  TIP3      H1              2.0536816386      -14.3513656141        2.6459553451  W2        1581            0.0000000000
      4743      1581  TIP3      H2              1.8073216386      -13.8352856141        4.0476853451  W2        1581            0.0000000000
      4744      1582  TIP3      OH2             7.7976516386       -8.9695956141        4.1428853451  W2        1582            0.0000000000
      4745      1582  TIP3      H1              7.5573116386       -8.3072856141        4.7908053451  W2        1582            0.0000000000
      4746      1582  TIP3      H2              7.5994716386       -9.8040756141        4.5678453451  W2        1582            0.0000000000
      4747      1583  TIP3      OH2             2.3685016386      -10.0735156141        8.1260253451  W2        1583            0.0000000000
      4748      1583  TIP3      H1              2.0572516386       -9.2911956141        8.5813453451  W2        1583            0.0000000000
      4749      1583  TIP3      H2              1.7185216386      -10.2266056141        7.4402253451  W2        1583            0.0000000000
      4750      1584  TIP3      OH2             8.3474616386      -14.7096756141       -4.4220446549  W2        1584            0.0000000000
      4751      1584  TIP3      H1              8.9270116386      -14.5596456141       -3.6751546549  W2        1584            0.0000000000
      4752      1584  TIP3      H2              8.7614616386      -14.2389356141       -5.1454046549  W2        1584            0.0000000000
      4753      1585  TIP3      OH2            -0.7115083614      -13.8754056141        7.3545953451  W2        1585            0.0000000000
      4754      1585  TIP3      H1             -0.6411883614      -13.2247256141        8.0530953451  W2        1585            0.0000000000
      4755      1585  TIP3      H2             -1.6022883614      -13.7726556141        7.0196853451  W2        1585            0.0000000000
      4756      1586  TIP3      OH2             6.0739516386       -7.9728256141       -0.9867346549  W2        1586            0.0000000000
      4757      1586  TIP3      H1              6.5477116386       -7.6771956141       -0.2093146549  W2        1586            0.0000000000
      4758      1586  TIP3      H2              5.5108816386       -7.2346656141       -1.2197746549  W2        1586            0.0000000000
      4759      1587  TIP3      OH2             0.6080916386       -8.0020156141        8.8894053451  W2        1587            0.0000000000
      4760      1587  TIP3      H1              0.6156216386       -8.1380456141        7.9419553451  W2        1587            0.0000000000
      4761      1587  TIP3      H2             -0.3078683614       -8.1192056141        9.1414053451  W2        1587            0.0000000000
      4762      1588  TIP3      OH2            12.0463016386      -22.9596356141       -4.6090746549  W2        1588            0.0000000000
      4763      1588  TIP3      H1             11.1463716386      -22.8207356141       -4.3140146549  W2        1588            0.0000000000
      4764      1588  TIP3      H2             12.2981416386      -22.1281756141       -5.0109046549  W2        1588            0.0000000000
      4765      1589  TIP3      OH2             0.1121516386      -14.1719156141       -2.6353846549  W2        1589            0.0000000000
      4766      1589  TIP3      H1             -0.1797183614      -13.4037456141       -3.1262546549  W2        1589            0.0000000000
      4767      1589  TIP3      H2             -0.5623283614      -14.8312956141       -2.7982446549  W2        1589            0.0000000000
      4768      1590  TIP3      OH2            13.2354416386       -8.5933956141       -6.2326846549  W2        1590            0.0000000000
      4769      1590  TIP3      H1             13.3087916386       -7.6543756141       -6.0621546549  W2        1590            0.0000000000
      4770      1590  TIP3      H2             14.1409516386       -8.8985356141       -6.2889546549  W2        1590            0.0000000000
      4771      1591  TIP3      OH2            -3.7948383614      -11.8089956141        6.1795953451  W2        1591            0.0000000000
      4772      1591  TIP3      H1             -4.2959983614      -11.8370556141        5.3645653451  W2        1591            0.0000000000
      4773      1591  TIP3      H2             -3.7894683614      -12.7146756141        6.4893253451  W2        1591            0.0000000000
      4774      1592  TIP3      OH2            -4.0445683614       -9.0286156141        3.0636153451  W2        1592            0.0000000000
      4775      1592  TIP3      H1             -3.0985083614       -9.1729156141        3.0445653451  W2        1592            0.0000000000
      4776      1592  TIP3      H2             -4.1569383614       -8.2443356141        3.6007353451  W2        1592            0.0000000000
      4777      1593  TIP3      OH2            14.1532816386       -8.3626456141        8.7459853451  W2        1593            0.0000000000
      4778      1593  TIP3      H1             14.1039616386       -9.3178356141        8.7087453451  W2        1593            0.0000000000
      4779      1593  TIP3      H2             13.3265116386       -8.0951156141        9.1473653451  W2        1593            0.0000000000
      4780      1594  TIP3      OH2             5.1316816386       -8.7887256141        7.6221253451  W2        1594            0.0000000000
      4781      1594  TIP3      H1              5.2191416386       -7.9622656141        8.0970353451  W2        1594            0.0000000000
      4782      1594  TIP3      H2              4.2681916386       -9.1183456141        7.8710553451  W2        1594            0.0000000000
      4783      1595  TIP3      OH2             5.5462616386       -5.0163556141       -2.5718146549  W2        1595            0.0000000000
      4784      1595  TIP3      H1              5.4708616386       -5.1376356141       -3.5182946549  W2        1595            0.0000000000
      4785      1595  TIP3      H2              5.5791316386       -4.0670856141       -2.4533546549  W2        1595            0.0000000000
      4786      1596  TIP3      OH2            -0.8003583614       -6.2276556141       -0.7909146549  W2        1596            0.0000000000
      4787      1596  TIP3      H1             -0.6483183614       -6.5756156141        0.0877353451  W2        1596            0.0000000000
      4788      1596  TIP3      H2             -1.6513183614       -6.5839256141       -1.0461946549  W2        1596            0.0000000000
      4789      1597  TIP3      OH2             8.6478616386       -5.8623356141       -5.5695746549  W2        1597            0.0000000000
      4790      1597  TIP3      H1              9.0227016386       -6.6067256141       -6.0403146549  W2        1597            0.0000000000
      4791      1597  TIP3      H2              8.6522316386       -6.1322756141       -4.6512446549  W2        1597            0.0000000000
      4792      1598  TIP3      OH2             8.3166716386       -5.9366256141       -2.8203546549  W2        1598            0.0000000000
      4793      1598  TIP3      H1              7.3816516386       -5.8364356141       -2.6416546549  W2        1598            0.0000000000
      4794      1598  TIP3      H2              8.5968616386       -6.6460256141       -2.2420346549  W2        1598            0.0000000000
      4795      1599  TIP3      OH2            11.3052616386      -16.8693956141        9.2262053451  W2        1599            0.0000000000
      4796      1599  TIP3      H1             10.8979416386      -16.3888356141        8.5055353451  W2        1599            0.0000000000
      4797      1599  TIP3      H2             11.3458316386      -17.7747956141        8.9182853451  W2        1599            0.0000000000
      4798      1600  TIP3      OH2            -1.5457883614      -10.4854556141        7.2228753451  W2        1600            0.0000000000
      4799      1600  TIP3      H1             -1.3296583614      -10.8468956141        8.0824553451  W2        1600            0.0000000000
      4800      1600  TIP3      H2             -2.4013183614      -10.8600756141        7.0132253451  W2        1600            0.0000000000
      4801      1601  TIP3      OH2             1.0730116386      -22.0154056141        3.2182953451  W2        1601            0.0000000000
      4802      1601  TIP3      H1              0.2113816386      -22.1025856141        2.8105853451  W2        1601            0.0000000000
      4803      1601  TIP3      H2              1.0505816386      -21.1593956141        3.6460553451  W2        1601            0.0000000000
      4804      1602  TIP3      OH2             5.7357916386      -22.2933656141        6.5929953451  W2        1602            0.0000000000
      4805      1602  TIP3      H1              6.1561016386      -22.7086556141        7.3460553451  W2        1602            0.0000000000
      4806      1602  TIP3      H2              4.8027516386      -22.4720356141        6.7101953451  W2        1602            0.0000000000
      4807      1603  TIP3      OH2             9.0622816386      -18.5378456141        7.4464453451  W2        1603            0.0000000000
      4808      1603  TIP3      H1              8.5482316386      -18.6636256141        8.2440453451  W2        1603            0.0000000000
      4809      1603  TIP3      H2              8.9067516386      -17.6255356141        7.2020653451  W2        1603            0.0000000000
      4810      1604  TIP3      OH2             9.8247716386      -13.6768456141       -6.7922546549  W2        1604            0.0000000000
      4811      1604  TIP3      H1              9.8668516386      -13.8994556141       -7.7222546549  W2        1604            0.0000000000
      4812      1604  TIP3      H2             10.6739816386      -13.2781356141       -6.6022646549  W2        1604            0.0000000000
      4813      1605  TIP3      OH2             5.3975216386      -19.8010256141       -6.1219246549  W2        1605            0.0000000000
      4814      1605  TIP3      H1              5.1440016386      -19.7818656141       -5.1991146549  W2        1605            0.0000000000
      4815      1605  TIP3      H2              5.1407316386      -20.6724856141       -6.4233046549  W2        1605            0.0000000000
      4816      1606  TIP3      OH2             1.1640216386      -17.0499556141        4.3133153451  W2        1606            0.0000000000
      4817      1606  TIP3      H1              0.5222316386      -17.0902256141        5.0223253451  W2        1606            0.0000000000
      4818      1606  TIP3      H2              1.2012216386      -16.1234856141        4.0756153451  W2        1606            0.0000000000
      4819      1607  TIP3      OH2             1.1609316386      -16.8289456141       -0.7746846549  W2        1607            0.0000000000
      4820      1607  TIP3      H1              0.2682216386      -17.1693356141       -0.8333046549  W2        1607            0.0000000000
      4821      1607  TIP3      H2              1.6115916386      -17.2058556141       -1.5303646549  W2        1607            0.0000000000
      4822      1608  TIP3      OH2             6.6964816386      -16.4129156141       -1.9576046549  W2        1608            0.0000000000
      4823      1608  TIP3      H1              6.2875116386      -15.5980556141       -2.2491246549  W2        1608            0.0000000000
      4824      1608  TIP3      H2              7.4171016386      -16.5529056141       -2.5718946549  W2        1608            0.0000000000
      4825      1609  TIP3      OH2             5.7986416386      -16.2372756141        9.5304653451  W2        1609            0.0000000000
      4826      1609  TIP3      H1              5.2360216386      -16.9421156141        9.8512453451  W2        1609            0.0000000000
      4827      1609  TIP3      H2              6.6249816386      -16.3580856141        9.9982253451  W2        1609            0.0000000000
      4828      1610  TIP3      OH2             7.7012516386      -16.9668756141        0.8563653451  W2        1610            0.0000000000
      4829      1610  TIP3      H1              7.5057016386      -16.3611956141        0.1414253451  W2        1610            0.0000000000
      4830      1610  TIP3      H2              7.8825116386      -17.8003556141        0.4219953451  W2        1610            0.0000000000
      4831      1611  TIP3      OH2            -1.0859283614      -16.7296056141        6.1805153451  W2        1611            0.0000000000
      4832      1611  TIP3      H1             -1.1239883614      -16.3294456141        7.0492253451  W2        1611            0.0000000000
      4833      1611  TIP3      H2             -1.5768183614      -17.5463656141        6.2708053451  W2        1611            0.0000000000
      4834      1612  TIP3      OH2             2.2798116386      -19.3553756141       -7.0208846549  W2        1612            0.0000000000
      4835      1612  TIP3      H1              1.8488816386      -19.8003656141       -6.2911446549  W2        1612            0.0000000000
      4836      1612  TIP3      H2              1.5616816386      -18.9837456141       -7.5331346549  W2        1612            0.0000000000
      4837      1613  TIP3      OH2            -4.4778483614      -19.6134256141        0.0309853451  W2        1613            0.0000000000
      4838      1613  TIP3      H1             -3.8470783614      -19.6422156141        0.7503753451  W2        1613            0.0000000000
      4839      1613  TIP3      H2             -4.0284183614      -20.0385556141       -0.6994246549  W2        1613            0.0000000000
      4840      1614  TIP3      OH2            -3.2036383614      -18.8672256141       -4.5449746549  W2        1614            0.0000000000
      4841      1614  TIP3      H1             -2.7294683614      -18.2762356141       -5.1298846549  W2        1614            0.0000000000
      4842      1614  TIP3      H2             -3.9209983614      -18.3369356141       -4.1979646549  W2        1614            0.0000000000
      4843      1615  TIP3      OH2             6.9651716386      -15.3287456141        5.5276053451  W2        1615            0.0000000000
      4844      1615  TIP3      H1              7.2886516386      -15.9597756141        4.8846553451  W2        1615            0.0000000000
      4845      1615  TIP3      H2              6.5251016386      -15.8635256141        6.1883453451  W2        1615            0.0000000000
      4846      1616  TIP3      OH2             3.7424616386      -19.4011956141        0.3117253451  W2        1616            0.0000000000
      4847      1616  TIP3      H1              2.8315716386      -19.3445156141        0.6003253451  W2        1616            0.0000000000
      4848      1616  TIP3      H2              4.2477516386      -19.4616456141        1.1224453451  W2        1616            0.0000000000
      4849      1617  TIP3      OH2            -1.4291983614      -17.7725656141       -0.8615146549  W2        1617            0.0000000000
      4850      1617  TIP3      H1             -2.3183983614      -17.6730156141       -1.2015546549  W2        1617            0.0000000000
      4851      1617  TIP3      H2             -1.1327083614      -18.6142656141       -1.2077246549  W2        1617            0.0000000000
      4852      1618  TIP3      OH2             2.2239816386      -17.7723056141       -3.2050546549  W2        1618            0.0000000000
      4853      1618  TIP3      H1              3.1555316386      -17.6433056141       -3.0267446549  W2        1618            0.0000000000
      4854      1618  TIP3      H2              2.0090116386      -17.1028756141       -3.8545846549  W2        1618            0.0000000000
      4855      1619  TIP3      OH2             8.1476516386      -20.1665656141        3.5759053451  W2        1619            0.0000000000
      4856      1619  TIP3      H1              7.4708116386      -20.0352556141        4.2398753451  W2        1619            0.0000000000
      4857      1619  TIP3      H2              7.6621416386      -20.3216156141        2.7656753451  W2        1619            0.0000000000
      4858      1620  TIP3      OH2             0.8980016386      -16.5780856141       -5.6384446549  W2        1620            0.0000000000
      4859      1620  TIP3      H1              0.3555116386      -16.9577056141       -6.3296846549  W2        1620            0.0000000000
      4860      1620  TIP3      H2              1.7314916386      -16.3836156141       -6.0670346549  W2        1620            0.0000000000
      4861      1621  TIP3      OH2            11.4351616386       -4.4950256141        9.8526653451  W2        1621            0.0000000000
      4862      1621  TIP3      H1             11.6350316386       -4.0708356141        9.0181953451  W2        1621            0.0000000000
      4863      1621  TIP3      H2             12.0905316386       -4.1512056141       10.4597053451  W2        1621            0.0000000000
      4864      1622  TIP3      OH2            -0.9668583614      -12.0208956141        9.4607153451  W2        1622            0.0000000000
      4865      1622  TIP3      H1             -0.2346183614      -11.7663056141       10.0221653451  W2        1622            0.0000000000
      4866      1622  TIP3      H2             -1.7469883614      -11.8163556141        9.9762553451  W2        1622            0.0000000000
      4867      1623  TIP3      OH2             5.0624316386      -16.6138956141        2.1986853451  W2        1623            0.0000000000
      4868      1623  TIP3      H1              5.6267716386      -17.1602356141        1.6516453451  W2        1623            0.0000000000
      4869      1623  TIP3      H2              4.9147716386      -17.1357056141        2.9874453451  W2        1623            0.0000000000
      4870      1624  TIP3      OH2             0.0644016386      -20.4772856141       -1.3828346549  W2        1624            0.0000000000
      4871      1624  TIP3      H1             -0.2526483614      -21.3797556141       -1.4182946549  W2        1624            0.0000000000
      4872      1624  TIP3      H2              0.8458116386      -20.4755456141       -1.9356746549  W2        1624            0.0000000000
      4873      1625  TIP3      OH2             3.6890216386      -18.2252856141        4.6127253451  W2        1625            0.0000000000
      4874      1625  TIP3      H1              2.8535516386      -17.7713356141        4.7229653451  W2        1625            0.0000000000
      4875      1625  TIP3      H2              4.2130816386      -17.9494356141        5.3647153451  W2        1625            0.0000000000
      4876      1626  TIP3      OH2             4.2332816386      -12.0125156141       -3.7026346549  W2        1626            0.0000000000
      4877      1626  TIP3      H1              3.4883816386      -12.5199856141       -4.0248446549  W2        1626            0.0000000000
      4878      1626  TIP3      H2              4.0990016386      -11.9637156141       -2.7561546549  W2        1626            0.0000000000
      4879      1627  TIP3      OH2            11.3831716386      -12.8796956141        5.0841253451  W2        1627            0.0000000000
      4880      1627  TIP3      H1             12.0250516386      -12.4230656141        4.5403453451  W2        1627            0.0000000000
      4881      1627  TIP3      H2             10.5528616386      -12.7664556141        4.6215353451  W2        1627            0.0000000000
      4882      1628  TIP3      OH2             8.1309616386      -19.1985256141       -5.5033746549  W2        1628            0.0000000000
      4883      1628  TIP3      H1              7.1923816386      -19.0869656141       -5.6544946549  W2        1628            0.0000000000
      4884      1628  TIP3      H2              8.4281716386      -18.3418356141       -5.1968046549  W2        1628            0.0000000000
      4885      1629  TIP3      OH2             5.7524916386      -11.8281856141        7.5342753451  W2        1629            0.0000000000
      4886      1629  TIP3      H1              5.4071016386      -12.2099456141        8.3412353451  W2        1629            0.0000000000
      4887      1629  TIP3      H2              5.5525016386      -10.8948256141        7.6055653451  W2        1629            0.0000000000
      4888      1630  TIP3      OH2             8.8493116386      -17.3312556141       -3.8426346549  W2        1630            0.0000000000
      4889      1630  TIP3      H1              9.7412116386      -17.4687556141       -3.5235146549  W2        1630            0.0000000000
      4890      1630  TIP3      H2              8.9056716386      -16.5406456141       -4.3792846549  W2        1630            0.0000000000
      4891      1631  TIP3      OH2            -0.6418883614      -12.7175156141        2.0671553451  W2        1631            0.0000000000
      4892      1631  TIP3      H1              0.1028316386      -12.7199456141        1.4658053451  W2        1631            0.0000000000
      4893      1631  TIP3      H2             -0.5642283614      -13.5411356141        2.5486653451  W2        1631            0.0000000000
      4894      1632  TIP3      OH2             6.3586916386      -10.5540856141       -4.6771746549  W2        1632            0.0000000000
      4895      1632  TIP3      H1              6.0635316386       -9.7272956141       -4.2956946549  W2        1632            0.0000000000
      4896      1632  TIP3      H2              5.6556916386      -11.1733956141       -4.4810346549  W2        1632            0.0000000000
      4897      1633  TIP3      OH2            -3.6339183614      -14.2568256141        7.3820053451  W2        1633            0.0000000000
      4898      1633  TIP3      H1             -3.4110583614      -14.6748656141        8.2137553451  W2        1633            0.0000000000
      4899      1633  TIP3      H2             -4.2359083614      -14.8693256141        6.9592853451  W2        1633            0.0000000000
      4900      1634  TIP3      OH2             3.3825716386      -14.7398356141        9.5949753451  W2        1634            0.0000000000
      4901      1634  TIP3      H1              3.0866516386      -14.9055356141        8.6998853451  W2        1634            0.0000000000
      4902      1634  TIP3      H2              4.3140916386      -14.9598056141        9.5843653451  W2        1634            0.0000000000
      4903      1635  TIP3      OH2             8.0028516386       -9.3666356141        7.4847753451  W2        1635            0.0000000000
      4904      1635  TIP3      H1              7.1022816386       -9.1833756141        7.2171653451  W2        1635            0.0000000000
      4905      1635  TIP3      H2              8.0369616386       -9.1077056141        8.4056553451  W2        1635            0.0000000000
      4906      1636  TIP3      OH2            13.7341816386      -17.1218456141       -4.1479646549  W2        1636            0.0000000000
      4907      1636  TIP3      H1             13.1798116386      -17.5180456141       -4.8202146549  W2        1636            0.0000000000
      4908      1636  TIP3      H2             13.8345416386      -16.2113256141       -4.4256346549  W2        1636            0.0000000000
      4909      1637  TIP3      OH2            13.6973816386      -11.3216756141        8.6891853451  W2        1637            0.0000000000
      4910      1637  TIP3      H1             12.8462316386      -11.0832956141        8.3218253451  W2        1637            0.0000000000
      4911      1637  TIP3      H2             14.2877216386      -11.3383556141        7.9358953451  W2        1637            0.0000000000
      4912      1638  TIP3      OH2            12.0293516386       -8.3358056141       -3.6827546549  W2        1638            0.0000000000
      4913      1638  TIP3      H1             11.6564616386       -9.1614256141       -3.3736946549  W2        1638            0.0000000000
      4914      1638  TIP3      H2             12.3067016386       -8.5188656141       -4.5804146549  W2        1638            0.0000000000
      4915      1639  TIP3      OH2             9.1897416386      -13.5278556141        3.3384353451  W2        1639            0.0000000000
      4916      1639  TIP3      H1              8.2614316386      -13.7596656141        3.3113653451  W2        1639            0.0000000000
      4917      1639  TIP3      H2              9.6408516386      -14.3048756141        3.0083153451  W2        1639            0.0000000000
      4918      1640  TIP3      OH2             1.7330516386       -9.1996956141       -0.5286946549  W2        1640            0.0000000000
      4919      1640  TIP3      H1              2.2602716386       -8.4262556141       -0.7288146549  W2        1640            0.0000000000
      4920      1640  TIP3      H2              0.8529016386       -8.9747756141       -0.8302946549  W2        1640            0.0000000000
      4921      1641  TIP3      OH2            -2.5121783614      -14.3372856141       -5.9414546549  W2        1641            0.0000000000
      4922      1641  TIP3      H1             -1.8961883614      -13.7105656141       -5.5619746549  W2        1641            0.0000000000
      4923      1641  TIP3      H2             -3.3739183614      -14.0213056141       -5.6698046549  W2        1641            0.0000000000
      4924      1642  TIP3      OH2             3.1602816386      -11.5367056141       -0.9522646549  W2        1642            0.0000000000
      4925      1642  TIP3      H1              2.9192816386      -10.6112656141       -0.9107346549  W2        1642            0.0000000000
      4926      1642  TIP3      H2              2.4196416386      -11.9955756141       -0.5558746549  W2        1642            0.0000000000
      4927      1643  TIP3      OH2             3.6749416386       -7.3873456141        5.3628453451  W2        1643            0.0000000000
      4928      1643  TIP3      H1              4.0374116386       -6.5327856141        5.1292853451  W2        1643            0.0000000000
      4929      1643  TIP3      H2              4.2064616386       -7.6791856141        6.1034753451  W2        1643            0.0000000000
      4930      1644  TIP3      OH2             1.8433616386       -6.5149456141       -1.4070446549  W2        1644            0.0000000000
      4931      1644  TIP3      H1              0.8934116386       -6.4092056141       -1.3557146549  W2        1644            0.0000000000
      4932      1644  TIP3      H2              2.1951716386       -5.6942056141       -1.0622946549  W2        1644            0.0000000000
      4933      1645  TIP3      OH2             7.2190216386      -11.2882756141        5.0634053451  W2        1645            0.0000000000
      4934      1645  TIP3      H1              6.7931516386      -11.5161056141        5.8898053451  W2        1645            0.0000000000
      4935      1645  TIP3      H2              7.7996016386      -12.0270956141        4.8809353451  W2        1645            0.0000000000
      4936      1646  TIP3      OH2             9.4219116386      -10.3592256141       -5.8626946549  W2        1646            0.0000000000
      4937      1646  TIP3      H1              9.7752216386      -10.7392456141       -5.0583446549  W2        1646            0.0000000000
      4938      1646  TIP3      H2              8.4732616386      -10.4527456141       -5.7757646549  W2        1646            0.0000000000
      4939      1647  TIP3      OH2             9.8774416386       -6.7363256141        7.5328853451  W2        1647            0.0000000000
      4940      1647  TIP3      H1              9.2757616386       -7.2920356141        7.0375153451  W2        1647            0.0000000000
      4941      1647  TIP3      H2             10.1588116386       -6.0693456141        6.9066253451  W2        1647            0.0000000000
      4942      1648  TIP3      OH2            13.9253516386       -5.8799756141       -5.6616746549  W2        1648            0.0000000000
      4943      1648  TIP3      H1             14.6691416386       -5.2939256141       -5.8015146549  W2        1648            0.0000000000
      4944      1648  TIP3      H2             13.2311616386       -5.3113956141       -5.3284346549  W2        1648            0.0000000000
      4945      1649  TIP3      OH2            -1.9999683614      -19.5035556141        6.9401453451  W2        1649            0.0000000000
      4946      1649  TIP3      H1             -2.8927383614      -19.1650156141        6.8725453451  W2        1649            0.0000000000
      4947      1649  TIP3      H2             -2.0986883614      -20.3589456141        7.3582253451  W2        1649            0.0000000000
      4948      1650  TIP3      OH2            10.2878416386      -11.6870256141       -3.6359046549  W2        1650            0.0000000000
      4949      1650  TIP3      H1             10.0106016386      -12.4150956141       -3.0797946549  W2        1650            0.0000000000
      4950      1650  TIP3      H2             11.2151416386      -11.5678256141       -3.4306446549  W2        1650            0.0000000000
      4951      1651  TIP3      OH2            -2.3487683614       -7.6991156141        5.3750853451  W2        1651            0.0000000000
      4952      1651  TIP3      H1             -2.1317383614       -8.6308756141        5.3440553451  W2        1651            0.0000000000
      4953      1651  TIP3      H2             -2.1024183614       -7.4246156141        6.2583653451  W2        1651            0.0000000000
      4954      1652  TIP3      OH2             3.5126916386       -9.2476156141       -7.4156946549  W2        1652            0.0000000000
      4955      1652  TIP3      H1              3.7516716386       -9.9958056141       -7.9628046549  W2        1652            0.0000000000
      4956      1652  TIP3      H2              3.2438216386       -9.6354456141       -6.5829146549  W2        1652            0.0000000000
      4957      1653  TIP3      OH2             2.4497516386       -9.6772356141       -4.9594346549  W2        1653            0.0000000000
      4958      1653  TIP3      H1              2.5965516386      -10.1972556141       -4.1693446549  W2        1653            0.0000000000
      4959      1653  TIP3      H2              2.4469216386       -8.7704756141       -4.6528446549  W2        1653            0.0000000000
      4960      1654  TIP3      OH2            -1.0971383614      -12.4249056141       -4.4488946549  W2        1654            0.0000000000
      4961      1654  TIP3      H1             -1.7832083614      -12.0726556141       -3.8819246549  W2        1654            0.0000000000
      4962      1654  TIP3      H2             -0.5743483614      -11.6619456141       -4.6954646549  W2        1654            0.0000000000
      4963      1655  TIP3      OH2             6.7343716386      -19.7625256141        5.8300053451  W2        1655            0.0000000000
      4964      1655  TIP3      H1              7.4331616386      -19.6886556141        6.4799753451  W2        1655            0.0000000000
      4965      1655  TIP3      H2              6.3535116386      -20.6270256141        5.9842953451  W2        1655            0.0000000000
      4966      1656  TIP3      OH2             7.5188616386      -20.1103556141       -3.0727646549  W2        1656            0.0000000000
      4967      1656  TIP3      H1              7.7386916386      -19.6388156141       -3.8762246549  W2        1656            0.0000000000
      4968      1656  TIP3      H2              8.0772616386      -19.7160956141       -2.4027046549  W2        1656            0.0000000000
      4969      1657  TIP3      OH2             5.1874716386       -7.9798756141       -4.2100146549  W2        1657            0.0000000000
      4970      1657  TIP3      H1              4.3710816386       -7.4829056141       -4.1575846549  W2        1657            0.0000000000
      4971      1657  TIP3      H2              5.7171016386       -7.5045256141       -4.8501346549  W2        1657            0.0000000000
      4972      1658  TIP3      OH2             4.7188516386      -18.3824756141       -2.2379246549  W2        1658            0.0000000000
      4973      1658  TIP3      H1              5.5311116386      -17.8781556141       -2.1917546549  W2        1658            0.0000000000
      4974      1658  TIP3      H2              4.4741516386      -18.5275056141       -1.3239646549  W2        1658            0.0000000000
      4975      1659  TIP3      OH2             5.2544916386      -17.3962056141        6.9467353451  W2        1659            0.0000000000
      4976      1659  TIP3      H1              5.3735216386      -16.8226656141        7.7037753451  W2        1659            0.0000000000
      4977      1659  TIP3      H2              5.9099516386      -18.0842656141        7.0615153451  W2        1659            0.0000000000
      4978      1660  TIP3      OH2             5.6025216386      -21.3011756141       -1.2998146549  W2        1660            0.0000000000
      4979      1660  TIP3      H1              5.2558716386      -20.6841156141       -0.6553846549  W2        1660            0.0000000000
      4980      1660  TIP3      H2              6.2612116386      -20.8006056141       -1.7812646549  W2        1660            0.0000000000
      4981      1661  TIP3      OH2             2.5257816386       -6.9361556141       -4.2283246549  W2        1661            0.0000000000
      4982      1661  TIP3      H1              2.6866516386       -6.1364056141       -4.7290646549  W2        1661            0.0000000000
      4983      1661  TIP3      H2              2.3285616386       -6.6295556141       -3.3432646549  W2        1661            0.0000000000
      4984      1662  TIP3      OH2             1.2602216386      -20.2382356141       -4.6125646549  W2        1662            0.0000000000
      4985      1662  TIP3      H1              1.1767016386      -19.3499256141       -4.2659246549  W2        1662            0.0000000000
      4986      1662  TIP3      H2              2.1502516386      -20.5035656141       -4.3808846549  W2        1662            0.0000000000
      4987      1663  TIP3      OH2            11.4590716386      -19.4891756141        7.7817053451  W2        1663            0.0000000000
      4988      1663  TIP3      H1             10.5426516386      -19.2270056141        7.6940753451  W2        1663            0.0000000000
      4989      1663  TIP3      H2             11.7945716386      -19.4922756141        6.8852353451  W2        1663            0.0000000000
      4990      1664  TIP3      OH2            10.0611716386      -15.7390756141        1.8774353451  W2        1664            0.0000000000
      4991      1664  TIP3      H1              9.2636116386      -16.1540556141        1.5489353451  W2        1664            0.0000000000
      4992      1664  TIP3      H2             10.5062816386      -16.4297056141        2.3684853451  W2        1664            0.0000000000
      4993      1665  TIP3      OH2            -0.4812483614       -9.8110156141       -5.5521146549  W2        1665            0.0000000000
      4994      1665  TIP3      H1              0.1109016386       -9.1115356141       -5.2758746549  W2        1665            0.0000000000
      4995      1665  TIP3      H2             -0.0219483614      -10.2440656141       -6.2716546549  W2        1665            0.0000000000
      4996      1666  TIP3      OH2            -2.1653283614      -17.1467156141       -6.4361746549  W2        1666            0.0000000000
      4997      1666  TIP3      H1             -2.2100683614      -16.2074056141       -6.2574746549  W2        1666            0.0000000000
      4998      1666  TIP3      H2             -3.0530083614      -17.3822256141       -6.7059646549  W2        1666            0.0000000000
      4999      1667  TIP3      OH2            11.1476316386       -6.4828256141        3.4997853451  W2        1667            0.0000000000
      5000      1667  TIP3      H1             10.9920616386       -5.8043856141        2.8427153451  W2        1667            0.0000000000
      5001      1667  TIP3      H2             12.0802716386       -6.4108956141        3.7028453451  W2        1667            0.0000000000
      5002      1668  TIP3      OH2            -1.3571283614      -22.3650556141        2.2369253451  W2        1668            0.0000000000
      5003      1668  TIP3      H1             -1.5861483614      -22.3058056141        1.3094253451  W2        1668            0.0000000000
      5004      1668  TIP3      H2             -1.7997883614      -23.1565056141        2.5433353451  W2        1668            0.0000000000
      5005      1669  TIP3      OH2            -2.4267983614       -8.4243456141       -1.6024946549  W2        1669            0.0000000000
      5006      1669  TIP3      H1             -3.2589383614       -7.9520756141       -1.5753546549  W2        1669            0.0000000000
      5007      1669  TIP3      H2             -1.8809683614       -7.9145856141       -2.2011846549  W2        1669            0.0000000000
      5008      1670  TIP3      OH2            -3.1384283614       -5.8119756141        9.7273053451  W2        1670            0.0000000000
      5009      1670  TIP3      H1             -2.5982083614       -6.0285756141       10.4872253451  W2        1670            0.0000000000
      5010      1670  TIP3      H2             -3.6196283614       -6.6173756141        9.5375553451  W2        1670            0.0000000000
      5011      1671  TIP3      OH2             1.4589116386       -6.8925356141       11.3477253451  W2        1671            0.0000000000
      5012      1671  TIP3      H1              2.2266316386       -7.3514556141       11.6886453451  W2        1671            0.0000000000
      5013      1671  TIP3      H2              1.4375316386       -7.1185556141       10.4178453451  W2        1671            0.0000000000
      5014      1672  TIP3      OH2             5.5508716386       -7.3844756141       -7.2770946549  W2        1672            0.0000000000
      5015      1672  TIP3      H1              4.9069716386       -8.0156156141       -6.9557246549  W2        1672            0.0000000000
      5016      1672  TIP3      H2              6.3127016386       -7.9156756141       -7.5087446549  W2        1672            0.0000000000
      5017      1673  TIP3      OH2             8.0357816386       -8.5124256141       10.0768753451  W2        1673            0.0000000000
      5018      1673  TIP3      H1              7.6847316386       -9.3691256141       10.3199153451  W2        1673            0.0000000000
      5019      1673  TIP3      H2              8.7621016386       -8.3697556141       10.6837753451  W2        1673            0.0000000000
      5020      1674  TIP3      OH2            10.1551616386       -7.5674856141       -7.0432946549  W2        1674            0.0000000000
      5021      1674  TIP3      H1             10.4382016386       -8.3619656141       -6.5906046549  W2        1674            0.0000000000
      5022      1674  TIP3      H2             10.8949516386       -7.3343856141       -7.6041846549  W2        1674            0.0000000000
      5023      1675  TIP3      OH2            -3.2314783614      -12.0015656141       10.6817353451  W2        1675            0.0000000000
      5024      1675  TIP3      H1             -3.0874283614      -12.9034956141       10.3954053451  W2        1675            0.0000000000
      5025      1675  TIP3      H2             -4.0037383614      -11.7153556141       10.1939653451  W2        1675            0.0000000000
      5026      1676  TIP3      OH2             1.1098916386      -11.6579956141       -7.1858046549  W2        1676            0.0000000000
      5027      1676  TIP3      H1              1.1743016386      -12.4520356141       -6.6551646549  W2        1676            0.0000000000
      5028      1676  TIP3      H2              1.7628116386      -11.7767156141       -7.8756046549  W2        1676            0.0000000000
      5029      1677  TIP3      OH2             3.4241316386      -12.0317556141       10.1143753451  W2        1677            0.0000000000
      5030      1677  TIP3      H1              3.0955116386      -11.7609456141        9.2571153451  W2        1677            0.0000000000
      5031      1677  TIP3      H2              3.5759516386      -12.9727756141       10.0268753451  W2        1677            0.0000000000
      5032      1678  TIP3      OH2             6.4622316386      -10.6108256141       -7.4500046549  W2        1678            0.0000000000
      5033      1678  TIP3      H1              6.1936416386      -10.4306156141       -6.5491146549  W2        1678            0.0000000000
      5034      1678  TIP3      H2              6.2557916386      -11.5362056141       -7.5814246549  W2        1678            0.0000000000
      5035      1679  TIP3      OH2             9.1586516386      -12.1160256141        7.4976053451  W2        1679            0.0000000000
      5036      1679  TIP3      H1              9.9041316386      -11.5276556141        7.3780053451  W2        1679            0.0000000000
      5037      1679  TIP3      H2              8.4013316386      -11.5340556141        7.5609153451  W2        1679            0.0000000000
      5038      1680  TIP3      OH2            -2.3988283614      -14.8012356141       10.1016653451  W2        1680            0.0000000000
      5039      1680  TIP3      H1             -1.9907083614      -15.6585756141        9.9807253451  W2        1680            0.0000000000
      5040      1680  TIP3      H2             -2.6590683614      -14.7871056141       11.0226953451  W2        1680            0.0000000000
      5041      1681  TIP3      OH2             2.2592716386      -13.6853756141       -4.8800046549  W2        1681            0.0000000000
      5042      1681  TIP3      H1              1.7994716386      -14.1695456141       -4.1941546549  W2        1681            0.0000000000
      5043      1681  TIP3      H2              2.5141416386      -14.3538356141       -5.5159546549  W2        1681            0.0000000000
      5044      1682  TIP3      OH2             1.5482016386      -15.7926656141        7.4759553451  W2        1682            0.0000000000
      5045      1682  TIP3      H1              0.9298116386      -15.1180056141        7.7564253451  W2        1682            0.0000000000
      5046      1682  TIP3      H2              1.8923216386      -15.4712756141        6.6425753451  W2        1682            0.0000000000
      5047      1683  TIP3      OH2             3.3303116386      -15.4421956141       -6.6176846549  W2        1683            0.0000000000
      5048      1683  TIP3      H1              3.1498116386      -15.5970756141       -7.5448546549  W2        1683            0.0000000000
      5049      1683  TIP3      H2              4.2803616386      -15.3343256141       -6.5728946549  W2        1683            0.0000000000
      5050      1684  TIP3      OH2             6.5680216386      -13.3211356141       10.7534353451  W2        1684            0.0000000000
      5051      1684  TIP3      H1              7.5211416386      -13.2372256141       10.7260353451  W2        1684            0.0000000000
      5052      1684  TIP3      H2              6.4074816386      -14.0329556141       11.3729253451  W2        1684            0.0000000000
      5053      1685  TIP3      OH2            12.7201416386      -13.0877756141       -7.1718746549  W2        1685            0.0000000000
      5054      1685  TIP3      H1             12.4466216386      -13.5122256141       -7.9850446549  W2        1685            0.0000000000
      5055      1685  TIP3      H2             12.7595516386      -12.1563256141       -7.3888346549  W2        1685            0.0000000000
      5056      1686  TIP3      OH2             1.8875716386      -18.4375856141        8.5582653451  W2        1686            0.0000000000
      5057      1686  TIP3      H1              2.0376616386      -19.1664556141        7.9562353451  W2        1686            0.0000000000
      5058      1686  TIP3      H2              1.8898116386      -17.6604156141        7.9994853451  W2        1686            0.0000000000
      5059      1687  TIP3      OH2             2.3001416386      -20.0680056141        6.0510053451  W2        1687            0.0000000000
      5060      1687  TIP3      H1              2.8358916386      -19.6163356141        5.3989353451  W2        1687            0.0000000000
      5061      1687  TIP3      H2              1.4481016386      -20.1760256141        5.6284153451  W2        1687            0.0000000000
      5062      1688  TIP3      OH2             3.8819816386      -14.6283856141        6.2905253451  W2        1688            0.0000000000
      5063      1688  TIP3      H1              4.6324616386      -14.7846356141        5.7173053451  W2        1688            0.0000000000
      5064      1688  TIP3      H2              3.5428116386      -13.7767256141        6.0150753451  W2        1688            0.0000000000
      5065      1689  TIP3      OH2             8.2976016386      -16.8132056141       11.3190553451  W2        1689            0.0000000000
      5066      1689  TIP3      H1              8.4897316386      -17.7442656141       11.2075053451  W2        1689            0.0000000000
      5067      1689  TIP3      H2              9.1552316386      -16.3882556141       11.3085953451  W2        1689            0.0000000000
      5068      1690  TIP3      OH2             9.6143216386      -14.0246856141        9.3963253451  W2        1690            0.0000000000
      5069      1690  TIP3      H1              9.3328216386      -13.3152256141        8.8187053451  W2        1690            0.0000000000
      5070      1690  TIP3      H2             10.5567516386      -14.0973856141        9.2454453451  W2        1690            0.0000000000
      5071      1691  TIP3      OH2             0.3662016386      -17.2392356141       10.4698253451  W2        1691            0.0000000000
      5072      1691  TIP3      H1             -0.4008983614      -17.7717556141       10.2595853451  W2        1691            0.0000000000
      5073      1691  TIP3      H2              1.0451016386      -17.5491956141        9.8704553451  W2        1691            0.0000000000
      5074      1692  TIP3      OH2             3.1056916386      -22.6114356141        6.4823653451  W2        1692            0.0000000000
      5075      1692  TIP3      H1              3.0076516386      -21.6651156141        6.3769853451  W2        1692            0.0000000000
      5076      1692  TIP3      H2              2.3633116386      -22.9840556141        6.0067153451  W2        1692            0.0000000000
      5077      1693  TIP3      OH2             4.3697416386      -18.2898956141       10.0462053451  W2        1693            0.0000000000
      5078      1693  TIP3      H1              4.1342816386      -18.5092256141       10.9476953451  W2        1693            0.0000000000
      5079      1693  TIP3      H2              3.5864316386      -18.4967756141        9.5364553451  W2        1693            0.0000000000
      5080      1694  TIP3      OH2             7.0854016386      -19.1625456141        9.1215553451  W2        1694            0.0000000000
      5081      1694  TIP3      H1              6.1379416386      -19.1305756141        9.2538853451  W2        1694            0.0000000000
      5082      1694  TIP3      H2              7.3980716386      -19.7878356141        9.7753753451  W2        1694            0.0000000000
      5083      1695  TIP3      OH2             8.7195516386      -20.5284356141       11.1267453451  W2        1695            0.0000000000
      5084      1695  TIP3      H1              8.6227316386      -21.4807056141       11.1209353451  W2        1695            0.0000000000
      5085      1695  TIP3      H2              8.3978616386      -20.2597556141       11.9872953451  W2        1695            0.0000000000
      5086      1696  TIP3      OH2            -1.4535183614      -19.3188556141       10.1742953451  W2        1696            0.0000000000
      5087      1696  TIP3      H1             -1.2417783614      -20.0252456141        9.5640453451  W2        1696            0.0000000000
      5088      1696  TIP3      H2             -1.5647683614      -19.7562556141       11.0184153451  W2        1696            0.0000000000
      5089      1697  TIP3      OH2             3.3275016386      -23.3176956141        9.1536453451  W2        1697            0.0000000000
      5090      1697  TIP3      H1              4.0393416386      -23.9574756141        9.1395553451  W2        1697            0.0000000000
      5091      1697  TIP3      H2              3.2265416386      -23.0508656141        8.2399553451  W2        1697            0.0000000000
      5092      1698  TIP3      OH2             3.6812516386      -21.6348556141       11.2072753451  W2        1698            0.0000000000
      5093      1698  TIP3      H1              3.5494716386      -22.1104756141       10.3871253451  W2        1698            0.0000000000
      5094      1698  TIP3      H2              3.0819916386      -20.8904956141       11.1519853451  W2        1698            0.0000000000
      5095      1699  TIP3      OH2             3.2274816386       -4.7518256141       -5.6163246549  W2        1699            0.0000000000
      5096      1699  TIP3      H1              4.1605516386       -4.5939556141       -5.4724846549  W2        1699            0.0000000000
      5097      1699  TIP3      H2              2.9633616386       -4.0765256141       -6.2411746549  W2        1699            0.0000000000
      5098      1700  TIP3      OH2            -3.2040283614      -10.1154456141       -6.1335146549  W2        1700            0.0000000000
      5099      1700  TIP3      H1             -2.2901083614      -10.0365556141       -5.8601246549  W2        1700            0.0000000000
      5100      1700  TIP3      H2             -3.1967183614      -10.8024856141       -6.7999546549  W2        1700            0.0000000000
      5101      1701  TIP3      OH2            -4.5549683614       -4.7225956141       -1.0561246549  W2        1701            0.0000000000
      5102      1701  TIP3      H1             -5.2022583614       -5.1844256141       -1.5890046549  W2        1701            0.0000000000
      5103      1701  TIP3      H2             -4.2005083614       -5.3942656141       -0.4735046549  W2        1701            0.0000000000
      5104      1702  TIP3      OH2            -3.6850483614       -6.6418956141        0.7484953451  W2        1702            0.0000000000
      5105      1702  TIP3      H1             -4.0193683614       -7.5221656141        0.9205153451  W2        1702            0.0000000000
      5106      1702  TIP3      H2             -3.4628083614       -6.2963956141        1.6130553451  W2        1702            0.0000000000
      5107      1703  TIP3      OH2            13.8634316386       -5.8322556141        3.7289753451  W2        1703            0.0000000000
      5108      1703  TIP3      H1             13.8421016386       -5.6474156141        4.6679153451  W2        1703            0.0000000000
      5109      1703  TIP3      H2             14.5540516386       -5.2638556141        3.3881153451  W2        1703            0.0000000000
      5110      1704  TIP3      OH2            13.4267216386       -6.2651456141        6.6508853451  W2        1704            0.0000000000
      5111      1704  TIP3      H1             12.9395916386       -7.0007356141        6.2796253451  W2        1704            0.0000000000
      5112      1704  TIP3      H2             13.9759916386       -6.6587556141        7.3288253451  W2        1704            0.0000000000
      5113      1705  TIP3      OH2            11.8774516386      -10.4753356141       11.2889153451  W2        1705            0.0000000000
      5114      1705  TIP3      H1             11.0115616386      -10.5803656141       11.6831453451  W2        1705            0.0000000000
      5115      1705  TIP3      H2             12.2540416386       -9.7170056141       11.7353853451  W2        1705            0.0000000000
      5116      1706  TIP3      OH2            13.1784216386      -12.2189656141       -3.1968346549  W2        1706            0.0000000000
      5117      1706  TIP3      H1             14.0285616386      -11.7978756141       -3.0696746549  W2        1706            0.0000000000
      5118      1706  TIP3      H2             13.1839316386      -12.9589556141       -2.5896946549  W2        1706            0.0000000000
      5119      1707  TIP3      OH2            13.5729816386      -14.1652256141       -1.3732646549  W2        1707            0.0000000000
      5120      1707  TIP3      H1             12.8464416386      -14.6449656141       -0.9755046549  W2        1707            0.0000000000
      5121      1707  TIP3      H2             14.1543116386      -13.9597556141       -0.6411046549  W2        1707            0.0000000000
      5122      1708  TIP3      OH2            13.3321016386      -11.3804756141        3.5744953451  W2        1708            0.0000000000
      5123      1708  TIP3      H1             14.1655216386      -11.7584756141        3.2938553451  W2        1708            0.0000000000
      5124      1708  TIP3      H2             13.4441316386      -10.4373556141        3.4554053451  W2        1708            0.0000000000
      5125      1709  TIP3      OH2            11.8183316386       -8.5027256141        5.8813353451  W2        1709            0.0000000000
      5126      1709  TIP3      H1             11.1708616386       -8.1775756141        6.5068553451  W2        1709            0.0000000000
      5127      1709  TIP3      H2             11.3007316386       -8.9429556141        5.2071653451  W2        1709            0.0000000000
      5128      1710  TIP3      OH2            13.8412916386      -14.2643756141       -4.9821346549  W2        1710            0.0000000000
      5129      1710  TIP3      H1             13.3194016386      -13.9079656141       -5.7010446549  W2        1710            0.0000000000
      5130      1710  TIP3      H2             13.8082116386      -13.5895956141       -4.3040446549  W2        1710            0.0000000000
      5131      1711  TIP3      OH2            12.1901916386      -17.0248156141       -6.4314246549  W2        1711            0.0000000000
      5132      1711  TIP3      H1             12.2866316386      -16.3581156141       -7.1114546549  W2        1711            0.0000000000
      5133      1711  TIP3      H2             12.0501516386      -17.8401856141       -6.9128746549  W2        1711            0.0000000000
      5134      1712  TIP3      OH2            11.3596616386      -15.6445756141       -0.8103946549  W2        1712            0.0000000000
      5135      1712  TIP3      H1             11.2095416386      -16.5897156141       -0.8306146549  W2        1712            0.0000000000
      5136      1712  TIP3      H2             11.0061116386      -15.3634356141        0.0335153451  W2        1712            0.0000000000
      5137      1713  TIP3      OH2            -3.6050983614      -13.5663556141        3.1999853451  W2        1713            0.0000000000
      5138      1713  TIP3      H1             -3.4208083614      -13.6481856141        2.2642753451  W2        1713            0.0000000000
      5139      1713  TIP3      H2             -2.7558083614      -13.6906556141        3.6236253451  W2        1713            0.0000000000
      5140      1714  TIP3      OH2            12.2159516386      -13.6742456141        8.8284353451  W2        1714            0.0000000000
      5141      1714  TIP3      H1             12.7986816386      -14.4090156141        9.0201553451  W2        1714            0.0000000000
      5142      1714  TIP3      H2             12.7798816386      -12.9022156141        8.8750153451  W2        1714            0.0000000000
      5143      1715  TIP3      OH2            13.7126616386      -15.7716656141        9.5129753451  W2        1715            0.0000000000
      5144      1715  TIP3      H1             12.8493316386      -16.1504556141        9.3474453451  W2        1715            0.0000000000
      5145      1715  TIP3      H2             14.3170316386      -16.5101856141        9.4385553451  W2        1715            0.0000000000
      5146      1716  TIP3      OH2            11.4375716386      -19.6168356141       -7.3138746549  W2        1716            0.0000000000
      5147      1716  TIP3      H1             12.0481516386      -19.9881556141       -6.6770546549  W2        1716            0.0000000000
      5148      1716  TIP3      H2             10.6007216386      -20.0381456141       -7.1178746549  W2        1716            0.0000000000
      5149      1717  TIP3      OH2            11.0701416386      -18.0619956141       -2.3478846549  W2        1717            0.0000000000
      5150      1717  TIP3      H1             11.3498516386      -18.9689556141       -2.2237146549  W2        1717            0.0000000000
      5151      1717  TIP3      H2             11.8293116386      -17.6278456141       -2.7369646549  W2        1717            0.0000000000
      5152      1718  TIP3      OH2            11.6819716386      -17.4802556141        3.0880053451  W2        1718            0.0000000000
      5153      1718  TIP3      H1             12.6147716386      -17.2682656141        3.0536053451  W2        1718            0.0000000000
      5154      1718  TIP3      H2             11.4467216386      -17.3790456141        4.0103053451  W2        1718            0.0000000000
      5155      1719  TIP3      OH2            11.7111616386      -16.7437256141        5.8639453451  W2        1719            0.0000000000
      5156      1719  TIP3      H1             10.8682916386      -16.4756856141        6.2299253451  W2        1719            0.0000000000
      5157      1719  TIP3      H2             12.1535916386      -15.9215356141        5.6530553451  W2        1719            0.0000000000
      5158      1720  TIP3      OH2            -4.0076183614      -18.2958556141        9.3408653451  W2        1720            0.0000000000
      5159      1720  TIP3      H1             -3.0881283614      -18.4180256141        9.5771753451  W2        1720            0.0000000000
      5160      1720  TIP3      H2             -4.4571683614      -19.0458856141        9.7302153451  W2        1720            0.0000000000
      5161      1721  TIP3      OH2            13.9943216386      -22.7637056141       11.2174453451  W2        1721            0.0000000000
      5162      1721  TIP3      H1             14.3440216386      -23.4173556141       10.6119153451  W2        1721            0.0000000000
      5163      1721  TIP3      H2             14.1412716386      -21.9262956141       10.7777053451  W2        1721            0.0000000000
      5164      1722  TIP3      OH2            11.6836216386      -20.7990656141       -2.2996846549  W2        1722            0.0000000000
      5165      1722  TIP3      H1             11.8661216386      -21.2479156141       -1.4741846549  W2        1722            0.0000000000
      5166      1722  TIP3      H2             11.0839116386      -21.3836256141       -2.7632246549  W2        1722            0.0000000000
      5167      1723  TIP3      OH2            -2.7863683614      -19.9836956141        2.2321553451  W2        1723            0.0000000000
      5168      1723  TIP3      H1             -2.3412083614      -20.7754456141        2.5341253451  W2        1723            0.0000000000
      5169      1723  TIP3      H2             -2.3200683614      -19.2671756141        2.6627153451  W2        1723            0.0000000000
      5170      1724  TIP3      OH2            -4.4823383614      -16.9843956141        3.3011753451  W2        1724            0.0000000000
      5171      1724  TIP3      H1             -3.9903583614      -17.2053456141        2.5103753451  W2        1724            0.0000000000
      5172      1724  TIP3      H2             -4.1202483614      -16.1440556141        3.5821253451  W2        1724            0.0000000000
      5173      1725  TIP3      OH2            13.5140416386      -20.6542456141        9.5665753451  W2        1725            0.0000000000
      5174      1725  TIP3      H1             12.5966116386      -20.3835356141        9.5309253451  W2        1725            0.0000000000
      5175      1725  TIP3      H2             13.6369816386      -21.1894056141        8.7825453451  W2        1725            0.0000000000
      5176      1726  TIP3      OH2            13.5502416386      -20.7312556141       -5.7716546549  W2        1726            0.0000000000
      5177      1726  TIP3      H1             13.9625016386      -21.4526856141       -6.2468546549  W2        1726            0.0000000000
      5178      1726  TIP3      H2             14.2318916386      -20.0617956141       -5.7132246549  W2        1726            0.0000000000
      5179      1727  TIP3      OH2            -4.1686883614      -20.7264856141       -2.6445846549  W2        1727            0.0000000000
      5180      1727  TIP3      H1             -5.0938483614      -20.5178256141       -2.7740346549  W2        1727            0.0000000000
      5181      1727  TIP3      H2             -3.7146983614      -20.2424056141       -3.3343546549  W2        1727            0.0000000000
      5182      1728  TIP3      OH2            10.6020316386       -5.7423156141       -0.6988446549  W2        1728            0.0000000000
      5183      1728  TIP3      H1             11.2543216386       -6.0901056141       -1.3069346549  W2        1728            0.0000000000
      5184      1728  TIP3      H2             11.1124116386       -5.2539956141       -0.0528746549  W2        1728            0.0000000000
      5185      1729  TIP3      OH2            -4.2051483614      -21.9885856141        5.6996653451  W2        1729            0.0000000000
      5186      1729  TIP3      H1             -4.8700983614      -22.2345556141        6.3427553451  W2        1729            0.0000000000
      5187      1729  TIP3      H2             -4.6480183614      -21.3665456141        5.1224653451  W2        1729            0.0000000000
      5188      1730  TIP3      OH2            -2.0132183614       -8.8131756141        9.8442453451  W2        1730            0.0000000000
      5189      1730  TIP3      H1             -2.8339683614       -8.6385256141        9.3837153451  W2        1730            0.0000000000
      5190      1730  TIP3      H2             -2.2654383614       -8.8867056141       10.7646853451  W2        1730            0.0000000000
      5191      1731  TIP3      OH2             0.9410716386       -7.8390556141        6.1026453451  W2        1731            0.0000000000
      5192      1731  TIP3      H1              0.5161816386       -7.0292056141        5.8201053451  W2        1731            0.0000000000
      5193      1731  TIP3      H2              1.8453516386       -7.7536456141        5.8006253451  W2        1731            0.0000000000
      5194      1732  TIP3      OH2             5.2522116386       -6.4400556141        9.0620153451  W2        1732            0.0000000000
      5195      1732  TIP3      H1              5.4369616386       -6.7734456141        9.9400453451  W2        1732            0.0000000000
      5196      1732  TIP3      H2              6.0986616386       -6.1301956141        8.7399353451  W2        1732            0.0000000000
      5197      1733  TIP3      OH2             7.5972516386       -5.1541656141        8.3061553451  W2        1733            0.0000000000
      5198      1733  TIP3      H1              8.2741416386       -5.7869356141        8.0660753451  W2        1733            0.0000000000
      5199      1733  TIP3      H2              7.9191316386       -4.7531156141        9.1134853451  W2        1733            0.0000000000
      5200      1734  TIP3      OH2            12.5146316386      -22.5646156141        7.3856553451  W2        1734            0.0000000000
      5201      1734  TIP3      H1             11.7019816386      -22.2395856141        6.9981253451  W2        1734            0.0000000000
      5202      1734  TIP3      H2             12.7474816386      -23.3247656141        6.8525653451  W2        1734            0.0000000000
      5203      1735  TIP3      OH2            -1.6572583614       -4.5826656141        6.1501753451  W2        1735            0.0000000000
      5204      1735  TIP3      H1             -2.3776183614       -4.1425656141        5.6989453451  W2        1735            0.0000000000
      5205      1735  TIP3      H2             -2.0228583614       -4.8331956141        6.9985753451  W2        1735            0.0000000000
      5206      1736  TIP3      OH2             0.8100016386       -4.9822756141        5.1798953451  W2        1736            0.0000000000
      5207      1736  TIP3      H1             -0.0547783614       -4.9104256141        5.5839053451  W2        1736            0.0000000000
      5208      1736  TIP3      H2              0.7549016386       -4.4355456141        4.3961453451  W2        1736            0.0000000000
      5209      1737  TIP3      OH2             5.5205616386       -5.0943856141        4.3554953451  W2        1737            0.0000000000
      5210      1737  TIP3      H1              5.0639616386       -4.5654156141        3.7013353451  W2        1737            0.0000000000
      5211      1737  TIP3      H2              5.6833616386       -4.4912456141        5.0807253451  W2        1737            0.0000000000
      5212      1738  TIP3      OH2             7.8481916386       -6.2164256141        5.3005253451  W2        1738            0.0000000000
      5213      1738  TIP3      H1              6.9435616386       -6.0514056141        5.0347353451  W2        1738            0.0000000000
      5214      1738  TIP3      H2              8.2770516386       -5.3632056141        5.2348653451  W2        1738            0.0000000000
      5215      1739  TIP3      OH2            10.4523816386       -4.6465156141        5.5953053451  W2        1739            0.0000000000
      5216      1739  TIP3      H1             10.2705816386       -3.7306256141        5.3847953451  W2        1739            0.0000000000
      5217      1739  TIP3      H2             10.6291616386       -5.0568056141        4.7487653451  W2        1739            0.0000000000
      5218      1740  TIP3      OH2            -2.2424483614       -5.9594156141        3.0603553451  W2        1740            0.0000000000
      5219      1740  TIP3      H1             -2.2608483614       -6.3849056141        3.9175853451  W2        1740            0.0000000000
      5220      1740  TIP3      H2             -1.4376583614       -6.2779156141        2.6515753451  W2        1740            0.0000000000
      5221      1741  TIP3      OH2            -0.1011383614       -7.2495456141        1.7153453451  W2        1741            0.0000000000
      5222      1741  TIP3      H1             -0.3200683614       -8.1658056141        1.8849453451  W2        1741            0.0000000000
      5223      1741  TIP3      H2              0.7230816386       -7.1095056141        2.1814853451  W2        1741            0.0000000000
      5224      1742  TIP3      OH2             2.4361116386       -6.7796156141        2.5641453451  W2        1742            0.0000000000
      5225      1742  TIP3      H1              2.6486816386       -7.6677156141        2.2772353451  W2        1742            0.0000000000
      5226      1742  TIP3      H2              2.5006216386       -6.8138456141        3.5185453451  W2        1742            0.0000000000
      5227      1743  TIP3      OH2             5.9444816386      -21.1155556141        1.7084753451  W2        1743            0.0000000000
      5228      1743  TIP3      H1              5.2701616386      -21.7449956141        1.9640553451  W2        1743            0.0000000000
      5229      1743  TIP3      H2              6.5084016386      -21.5996656141        1.1052653451  W2        1743            0.0000000000
      5230      1744  TIP3      OH2            11.0872016386      -23.0081556141        1.8211853451  W2        1744            0.0000000000
      5231      1744  TIP3      H1             11.6909616386      -22.4606156141        1.3192853451  W2        1744            0.0000000000
      5232      1744  TIP3      H2             10.2174016386      -22.6891156141        1.5805953451  W2        1744            0.0000000000
      5233      1745  TIP3      OH2            12.8142416386      -21.8692856141        0.1542753451  W2        1745            0.0000000000
      5234      1745  TIP3      H1             13.4259916386      -22.3837156141       -0.3723646549  W2        1745            0.0000000000
      5235      1745  TIP3      H2             13.1965816386      -20.9920756141        0.1777153451  W2        1745            0.0000000000
      5236      1746  TIP3      OH2            -1.7287683614      -22.4815256141       -0.4695346549  W2        1746            0.0000000000
      5237      1746  TIP3      H1             -2.5057883614      -22.7160356141       -0.9769446549  W2        1746            0.0000000000
      5238      1746  TIP3      H2             -1.1984083614      -23.2783156141       -0.4607346549  W2        1746            0.0000000000
      5239      1747  TIP3      OH2            -2.8924283614      -22.6837156141       -4.6659246549  W2        1747            0.0000000000
      5240      1747  TIP3      H1             -2.4533583614      -22.0726656141       -5.2575746549  W2        1747            0.0000000000
      5241      1747  TIP3      H2             -3.5261883614      -22.1453056141       -4.1919246549  W2        1747            0.0000000000
      5242      1748  TIP3      OH2             2.8504916386      -22.5548156141       -0.6562246549  W2        1748            0.0000000000
      5243      1748  TIP3      H1              3.7248316386      -22.1663856141       -0.6857946549  W2        1748            0.0000000000
      5244      1748  TIP3      H2              2.7145716386      -22.7700356141        0.2664953451  W2        1748            0.0000000000
      5245      1749  TIP3      OH2             8.4073316386      -22.5248356141        0.9929453451  W2        1749            0.0000000000
      5246      1749  TIP3      H1              8.4834916386      -22.4296756141        0.0435453451  W2        1749            0.0000000000
      5247      1749  TIP3      H2              8.1322516386      -23.4325456141        1.1218553451  W2        1749            0.0000000000
      5248      1750  TIP3      OH2             9.7605916386      -22.4990556141       -3.3145546549  W2        1750            0.0000000000
      5249      1750  TIP3      H1              9.0577016386      -21.8841356141       -3.5244146549  W2        1750            0.0000000000
      5250      1750  TIP3      H2              9.3157316386      -23.3363856141       -3.1834646549  W2        1750            0.0000000000
      5251      1751  TIP3      OH2            -2.9914783614       -6.7354956141       -3.7684146549  W2        1751            0.0000000000
      5252      1751  TIP3      H1             -3.6764883614       -6.7736056141       -4.4359046549  W2        1751            0.0000000000
      5253      1751  TIP3      H2             -2.9877583614       -5.8227356141       -3.4802046549  W2        1751            0.0000000000
      5254      1752  TIP3      OH2            -1.0315183614      -20.7675656141       -6.2235146549  W2        1752            0.0000000000
      5255      1752  TIP3      H1             -0.5401783614      -21.3973256141       -6.7509646549  W2        1752            0.0000000000
      5256      1752  TIP3      H2             -0.4078883614      -20.4716256141       -5.5603946549  W2        1752            0.0000000000
      5257      1753  TIP3      OH2             3.9944916386      -20.4744156141       -3.7664646549  W2        1753            0.0000000000
      5258      1753  TIP3      H1              4.1726216386      -21.1210956141       -3.0836046549  W2        1753            0.0000000000
      5259      1753  TIP3      H2              3.9411116386      -19.6406456141       -3.2993546549  W2        1753            0.0000000000
      5260      1754  TIP3      OH2             5.8728716386       -5.5260056141       -5.3707946549  W2        1754            0.0000000000
      5261      1754  TIP3      H1              6.7388916386       -5.1592656141       -5.5489746549  W2        1754            0.0000000000
      5262      1754  TIP3      H2              5.6261516386       -5.9652056141       -6.1847146549  W2        1754            0.0000000000
      5263      1755  TIP3      OH2            12.5818316386       -5.9629756141       -2.6916846549  W2        1755            0.0000000000
      5264      1755  TIP3      H1             12.3875416386       -6.7107656141       -3.2567246549  W2        1755            0.0000000000
      5265      1755  TIP3      H2             12.5428416386       -5.2049656141       -3.2748946549  W2        1755            0.0000000000
      5266      1756  TIP3      OH2            -1.7709683614      -21.9673356141        9.0480853451  W2        1756            0.0000000000
      5267      1756  TIP3      H1             -2.1371483614      -22.7330756141        9.4905553451  W2        1756            0.0000000000
      5268      1756  TIP3      H2             -0.8581183614      -21.9383156141        9.3345953451  W2        1756            0.0000000000
      5269      1757  TIP3      OH2             0.2021116386      -22.6168956141       10.5837953451  W2        1757            0.0000000000
      5270      1757  TIP3      H1              1.1004716386      -22.8908756141       10.3991353451  W2        1757            0.0000000000
      5271      1757  TIP3      H2             -0.1845783614      -23.3592956141       11.0480553451  W2        1757            0.0000000000
      5272      1758  TIP3      OH2            -1.1733583614       -5.8154156141       -6.7432046549  W2        1758            0.0000000000
      5273      1758  TIP3      H1             -1.4408983614       -5.5291256141       -5.8698946549  W2        1758            0.0000000000
      5274      1758  TIP3      H2             -0.4020983614       -6.3614956141       -6.5909546549  W2        1758            0.0000000000
      5275      1759  TIP3      OH2             8.6233416386      -23.2843656141       10.7660753451  W2        1759            0.0000000000
      5276      1759  TIP3      H1              8.7000616386      -23.7102956141       11.6198453451  W2        1759            0.0000000000
      5277      1759  TIP3      H2              9.5170016386      -23.2708956141       10.4234253451  W2        1759            0.0000000000
      5278      1760  TIP3      OH2            11.7994516386       -7.2117356141        9.4584953451  W2        1760            0.0000000000
      5279      1760  TIP3      H1             11.0176416386       -7.3979356141        8.9385553451  W2        1760            0.0000000000
      5280      1760  TIP3      H2             11.7274416386       -6.2823056141        9.6757453451  W2        1760            0.0000000000
      5281      1761  TIP3      OH2            17.5071216386      -14.4560156141        4.5010253451  W2        1761            0.0000000000
      5282      1761  TIP3      H1             17.5483316386      -15.0816856141        5.2242653451  W2        1761            0.0000000000
      5283      1761  TIP3      H2             18.2098916386      -13.8321556141        4.6830653451  W2        1761            0.0000000000
      5284      1762  TIP3      OH2            18.4304316386      -10.0061256141        3.0359353451  W2        1762            0.0000000000
      5285      1762  TIP3      H1             18.0609516386      -10.8080756141        2.6663653451  W2        1762            0.0000000000
      5286      1762  TIP3      H2             19.3715416386      -10.1746356141        3.0822753451  W2        1762            0.0000000000
      5287      1763  TIP3      OH2            15.0404816386      -16.3458656141       -1.5711846549  W2        1763            0.0000000000
      5288      1763  TIP3      H1             14.5928216386      -15.4999956141       -1.5895346549  W2        1763            0.0000000000
      5289      1763  TIP3      H2             14.4796016386      -16.9254456141       -2.0866746549  W2        1763            0.0000000000
      5290      1764  TIP3      OH2            15.7510916386      -14.1839056141        0.5546153451  W2        1764            0.0000000000
      5291      1764  TIP3      H1             15.9644416386      -14.9537456141        1.0819153451  W2        1764            0.0000000000
      5292      1764  TIP3      H2             16.4888516386      -14.0942356141       -0.0486246549  W2        1764            0.0000000000
      5293      1765  TIP3      OH2            19.8235916386      -19.1422056141        0.9140953451  W2        1765            0.0000000000
      5294      1765  TIP3      H1             19.8667016386      -18.2823556141        0.4957253451  W2        1765            0.0000000000
      5295      1765  TIP3      H2             19.3660016386      -19.6947356141        0.2804153451  W2        1765            0.0000000000
      5296      1766  TIP3      OH2            16.4437416386      -16.7456256141        1.6762353451  W2        1766            0.0000000000
      5297      1766  TIP3      H1             17.0974016386      -17.2954556141        2.1082453451  W2        1766            0.0000000000
      5298      1766  TIP3      H2             16.4676716386      -17.0197256141        0.7594353451  W2        1766            0.0000000000
      5299      1767  TIP3      OH2            21.6001916386      -15.1954956141        0.8913853451  W2        1767            0.0000000000
      5300      1767  TIP3      H1             22.2162916386      -15.7219556141        1.4007853451  W2        1767            0.0000000000
      5301      1767  TIP3      H2             21.0140716386      -15.8356256141        0.4877453451  W2        1767            0.0000000000
      5302      1768  TIP3      OH2            18.6337816386      -20.2243656141        4.9881753451  W2        1768            0.0000000000
      5303      1768  TIP3      H1             18.4149516386      -19.6943056141        4.2217753451  W2        1768            0.0000000000
      5304      1768  TIP3      H2             17.9658716386      -19.9978156141        5.6353153451  W2        1768            0.0000000000
      5305      1769  TIP3      OH2            21.2029216386      -12.5487956141        5.2755453451  W2        1769            0.0000000000
      5306      1769  TIP3      H1             20.4628316386      -11.9506456141        5.3790653451  W2        1769            0.0000000000
      5307      1769  TIP3      H2             21.9168716386      -11.9948356141        4.9599053451  W2        1769            0.0000000000
      5308      1770  TIP3      OH2            18.2275116386      -18.3321856141        2.9403953451  W2        1770            0.0000000000
      5309      1770  TIP3      H1             18.8411416386      -17.6994256141        3.3136353451  W2        1770            0.0000000000
      5310      1770  TIP3      H2             18.7395816386      -18.8046856141        2.2840853451  W2        1770            0.0000000000
      5311      1771  TIP3      OH2            19.6103516386      -10.5844956141        6.0626953451  W2        1771            0.0000000000
      5312      1771  TIP3      H1             19.6051116386       -9.7051456141        5.6846253451  W2        1771            0.0000000000
      5313      1771  TIP3      H2             18.7567616386      -10.6680856141        6.4876853451  W2        1771            0.0000000000
      5314      1772  TIP3      OH2            15.7314416386      -10.9137056141       -3.1553746549  W2        1772            0.0000000000
      5315      1772  TIP3      H1             15.4595316386      -10.6846056141       -4.0440846549  W2        1772            0.0000000000
      5316      1772  TIP3      H2             15.7770116386      -10.0758256141       -2.6948446549  W2        1772            0.0000000000
      5317      1773  TIP3      OH2            22.6602516386      -22.9188556141        2.4406653451  W2        1773            0.0000000000
      5318      1773  TIP3      H1             22.5426716386      -23.8672556141        2.3864953451  W2        1773            0.0000000000
      5319      1773  TIP3      H2             21.8052616386      -22.5862456141        2.7137753451  W2        1773            0.0000000000
      5320      1774  TIP3      OH2            19.9778816386      -13.2413456141       -0.2246646549  W2        1774            0.0000000000
      5321      1774  TIP3      H1             19.6474016386      -13.6120056141       -1.0429646549  W2        1774            0.0000000000
      5322      1774  TIP3      H2             20.5662916386      -13.9119456141        0.1221653451  W2        1774            0.0000000000
      5323      1775  TIP3      OH2            21.3446316386       -9.8132856141        2.4565553451  W2        1775            0.0000000000
      5324      1775  TIP3      H1             21.2497616386      -10.3919756141        1.7000153451  W2        1775            0.0000000000
      5325      1775  TIP3      H2             22.0739916386      -10.1847156141        2.9528353451  W2        1775            0.0000000000
      5326      1776  TIP3      OH2            20.3444316386      -14.4727856141        3.4088353451  W2        1776            0.0000000000
      5327      1776  TIP3      H1             20.9096816386      -14.3513656141        2.6459553451  W2        1776            0.0000000000
      5328      1776  TIP3      H2             20.6633216386      -13.8352856141        4.0476853451  W2        1776            0.0000000000
      5329      1777  TIP3      OH2            21.2245016386      -10.0735156141        8.1260253451  W2        1777            0.0000000000
      5330      1777  TIP3      H1             20.9132516386       -9.2911956141        8.5813453451  W2        1777            0.0000000000
      5331      1777  TIP3      H2             20.5745216386      -10.2266056141        7.4402253451  W2        1777            0.0000000000
      5332      1778  TIP3      OH2            18.1444916386      -13.8754056141        7.3545953451  W2        1778            0.0000000000
      5333      1778  TIP3      H1             18.2148116386      -13.2247256141        8.0530953451  W2        1778            0.0000000000
      5334      1778  TIP3      H2             17.2537116386      -13.7726556141        7.0196853451  W2        1778            0.0000000000
      5335      1779  TIP3      OH2            19.4640916386       -8.0020156141        8.8894053451  W2        1779            0.0000000000
      5336      1779  TIP3      H1             19.4716216386       -8.1380456141        7.9419553451  W2        1779            0.0000000000
      5337      1779  TIP3      H2             18.5481316386       -8.1192056141        9.1414053451  W2        1779            0.0000000000
      5338      1780  TIP3      OH2            18.9681516386      -14.1719156141       -2.6353846549  W2        1780            0.0000000000
      5339      1780  TIP3      H1             18.6762816386      -13.4037456141       -3.1262546549  W2        1780            0.0000000000
      5340      1780  TIP3      H2             18.2936716386      -14.8312956141       -2.7982446549  W2        1780            0.0000000000
      5341      1781  TIP3      OH2            15.0611616386      -11.8089956141        6.1795953451  W2        1781            0.0000000000
      5342      1781  TIP3      H1             14.5600016386      -11.8370556141        5.3645653451  W2        1781            0.0000000000
      5343      1781  TIP3      H2             15.0665316386      -12.7146756141        6.4893253451  W2        1781            0.0000000000
      5344      1782  TIP3      OH2            14.8114316386       -9.0286156141        3.0636153451  W2        1782            0.0000000000
      5345      1782  TIP3      H1             15.7574916386       -9.1729156141        3.0445653451  W2        1782            0.0000000000
      5346      1782  TIP3      H2             14.6990616386       -8.2443356141        3.6007353451  W2        1782            0.0000000000
      5347      1783  TIP3      OH2            18.0556416386       -6.2276556141       -0.7909146549  W2        1783            0.0000000000
      5348      1783  TIP3      H1             18.2076816386       -6.5756156141        0.0877353451  W2        1783            0.0000000000
      5349      1783  TIP3      H2             17.2046816386       -6.5839256141       -1.0461946549  W2        1783            0.0000000000
      5350      1784  TIP3      OH2            17.3102116386      -10.4854556141        7.2228753451  W2        1784            0.0000000000
      5351      1784  TIP3      H1             17.5263416386      -10.8468956141        8.0824553451  W2        1784            0.0000000000
      5352      1784  TIP3      H2             16.4546816386      -10.8600756141        7.0132253451  W2        1784            0.0000000000
      5353      1785  TIP3      OH2            19.9290116386      -22.0154056141        3.2182953451  W2        1785            0.0000000000
      5354      1785  TIP3      H1             19.0673816386      -22.1025856141        2.8105853451  W2        1785            0.0000000000
      5355      1785  TIP3      H2             19.9065816386      -21.1593956141        3.6460553451  W2        1785            0.0000000000
      5356      1786  TIP3      OH2            20.0200216386      -17.0499556141        4.3133153451  W2        1786            0.0000000000
      5357      1786  TIP3      H1             19.3782316386      -17.0902256141        5.0223253451  W2        1786            0.0000000000
      5358      1786  TIP3      H2             20.0572216386      -16.1234856141        4.0756153451  W2        1786            0.0000000000
      5359      1787  TIP3      OH2            20.0169316386      -16.8289456141       -0.7746846549  W2        1787            0.0000000000
      5360      1787  TIP3      H1             19.1242216386      -17.1693356141       -0.8333046549  W2        1787            0.0000000000
      5361      1787  TIP3      H2             20.4675916386      -17.2058556141       -1.5303646549  W2        1787            0.0000000000
      5362      1788  TIP3      OH2            17.7700716386      -16.7296056141        6.1805153451  W2        1788            0.0000000000
      5363      1788  TIP3      H1             17.7320116386      -16.3294456141        7.0492253451  W2        1788            0.0000000000
      5364      1788  TIP3      H2             17.2791816386      -17.5463656141        6.2708053451  W2        1788            0.0000000000
      5365      1789  TIP3      OH2            21.1358116386      -19.3553756141       -7.0208846549  W2        1789            0.0000000000
      5366      1789  TIP3      H1             20.7048816386      -19.8003656141       -6.2911446549  W2        1789            0.0000000000
      5367      1789  TIP3      H2             20.4176816386      -18.9837456141       -7.5331346549  W2        1789            0.0000000000
      5368      1790  TIP3      OH2            14.3781516386      -19.6134256141        0.0309853451  W2        1790            0.0000000000
      5369      1790  TIP3      H1             15.0089216386      -19.6422156141        0.7503753451  W2        1790            0.0000000000
      5370      1790  TIP3      H2             14.8275816386      -20.0385556141       -0.6994246549  W2        1790            0.0000000000
      5371      1791  TIP3      OH2            15.6523616386      -18.8672256141       -4.5449746549  W2        1791            0.0000000000
      5372      1791  TIP3      H1             16.1265316386      -18.2762356141       -5.1298846549  W2        1791            0.0000000000
      5373      1791  TIP3      H2             14.9350016386      -18.3369356141       -4.1979646549  W2        1791            0.0000000000
      5374      1792  TIP3      OH2            22.5984616386      -19.4011956141        0.3117253451  W2        1792            0.0000000000
      5375      1792  TIP3      H1             21.6875716386      -19.3445156141        0.6003253451  W2        1792            0.0000000000
      5376      1792  TIP3      H2             23.1037516386      -19.4616456141        1.1224453451  W2        1792            0.0000000000
      5377      1793  TIP3      OH2            17.4268016386      -17.7725656141       -0.8615146549  W2        1793            0.0000000000
      5378      1793  TIP3      H1             16.5376016386      -17.6730156141       -1.2015546549  W2        1793            0.0000000000
      5379      1793  TIP3      H2             17.7232916386      -18.6142656141       -1.2077246549  W2        1793            0.0000000000
      5380      1794  TIP3      OH2            21.0799816386      -17.7723056141       -3.2050546549  W2        1794            0.0000000000
      5381      1794  TIP3      H1             22.0115316386      -17.6433056141       -3.0267446549  W2        1794            0.0000000000
      5382      1794  TIP3      H2             20.8650116386      -17.1028756141       -3.8545846549  W2        1794            0.0000000000
      5383      1795  TIP3      OH2            19.7540016386      -16.5780856141       -5.6384446549  W2        1795            0.0000000000
      5384      1795  TIP3      H1             19.2115116386      -16.9577056141       -6.3296846549  W2        1795            0.0000000000
      5385      1795  TIP3      H2             20.5874916386      -16.3836156141       -6.0670346549  W2        1795            0.0000000000
      5386      1796  TIP3      OH2            17.8891416386      -12.0208956141        9.4607153451  W2        1796            0.0000000000
      5387      1796  TIP3      H1             18.6213816386      -11.7663056141       10.0221653451  W2        1796            0.0000000000
      5388      1796  TIP3      H2             17.1090116386      -11.8163556141        9.9762553451  W2        1796            0.0000000000
      5389      1797  TIP3      OH2            18.9204016386      -20.4772856141       -1.3828346549  W2        1797            0.0000000000
      5390      1797  TIP3      H1             18.6033516386      -21.3797556141       -1.4182946549  W2        1797            0.0000000000
      5391      1797  TIP3      H2             19.7018116386      -20.4755456141       -1.9356746549  W2        1797            0.0000000000
      5392      1798  TIP3      OH2            22.5450216386      -18.2252856141        4.6127253451  W2        1798            0.0000000000
      5393      1798  TIP3      H1             21.7095516386      -17.7713356141        4.7229653451  W2        1798            0.0000000000
      5394      1798  TIP3      H2             23.0690816386      -17.9494356141        5.3647153451  W2        1798            0.0000000000
      5395      1799  TIP3      OH2            23.0892816386      -12.0125156141       -3.7026346549  W2        1799            0.0000000000
      5396      1799  TIP3      H1             22.3443816386      -12.5199856141       -4.0248446549  W2        1799            0.0000000000
      5397      1799  TIP3      H2             22.9550016386      -11.9637156141       -2.7561546549  W2        1799            0.0000000000
      5398      1800  TIP3      OH2            18.2141116386      -12.7175156141        2.0671553451  W2        1800            0.0000000000
      5399      1800  TIP3      H1             18.9588316386      -12.7199456141        1.4658053451  W2        1800            0.0000000000
      5400      1800  TIP3      H2             18.2917716386      -13.5411356141        2.5486653451  W2        1800            0.0000000000
      5401      1801  TIP3      OH2            15.2220816386      -14.2568256141        7.3820053451  W2        1801            0.0000000000
      5402      1801  TIP3      H1             15.4449416386      -14.6748656141        8.2137553451  W2        1801            0.0000000000
      5403      1801  TIP3      H2             14.6200916386      -14.8693256141        6.9592853451  W2        1801            0.0000000000
      5404      1802  TIP3      OH2            22.2385716386      -14.7398356141        9.5949753451  W2        1802            0.0000000000
      5405      1802  TIP3      H1             21.9426516386      -14.9055356141        8.6998853451  W2        1802            0.0000000000
      5406      1802  TIP3      H2             23.1700916386      -14.9598056141        9.5843653451  W2        1802            0.0000000000
      5407      1803  TIP3      OH2            20.5890516386       -9.1996956141       -0.5286946549  W2        1803            0.0000000000
      5408      1803  TIP3      H1             21.1162716386       -8.4262556141       -0.7288146549  W2        1803            0.0000000000
      5409      1803  TIP3      H2             19.7089016386       -8.9747756141       -0.8302946549  W2        1803            0.0000000000
      5410      1804  TIP3      OH2            16.3438216386      -14.3372856141       -5.9414546549  W2        1804            0.0000000000
      5411      1804  TIP3      H1             16.9598116386      -13.7105656141       -5.5619746549  W2        1804            0.0000000000
      5412      1804  TIP3      H2             15.4820816386      -14.0213056141       -5.6698046549  W2        1804            0.0000000000
      5413      1805  TIP3      OH2            22.0162816386      -11.5367056141       -0.9522646549  W2        1805            0.0000000000
      5414      1805  TIP3      H1             21.7752816386      -10.6112656141       -0.9107346549  W2        1805            0.0000000000
      5415      1805  TIP3      H2             21.2756416386      -11.9955756141       -0.5558746549  W2        1805            0.0000000000
      5416      1806  TIP3      OH2            22.5309416386       -7.3873456141        5.3628453451  W2        1806            0.0000000000
      5417      1806  TIP3      H1             22.8934116386       -6.5327856141        5.1292853451  W2        1806            0.0000000000
      5418      1806  TIP3      H2             23.0624616386       -7.6791856141        6.1034753451  W2        1806            0.0000000000
      5419      1807  TIP3      OH2            20.6993616386       -6.5149456141       -1.4070446549  W2        1807            0.0000000000
      5420      1807  TIP3      H1             19.7494116386       -6.4092056141       -1.3557146549  W2        1807            0.0000000000
      5421      1807  TIP3      H2             21.0511716386       -5.6942056141       -1.0622946549  W2        1807            0.0000000000
      5422      1808  TIP3      OH2            16.8560316386      -19.5035556141        6.9401453451  W2        1808            0.0000000000
      5423      1808  TIP3      H1             15.9632616386      -19.1650156141        6.8725453451  W2        1808            0.0000000000
      5424      1808  TIP3      H2             16.7573116386      -20.3589456141        7.3582253451  W2        1808            0.0000000000
      5425      1809  TIP3      OH2            16.5072316386       -7.6991156141        5.3750853451  W2        1809            0.0000000000
      5426      1809  TIP3      H1             16.7242616386       -8.6308756141        5.3440553451  W2        1809            0.0000000000
      5427      1809  TIP3      H2             16.7535816386       -7.4246156141        6.2583653451  W2        1809            0.0000000000
      5428      1810  TIP3      OH2            22.3686916386       -9.2476156141       -7.4156946549  W2        1810            0.0000000000
      5429      1810  TIP3      H1             22.6076716386       -9.9958056141       -7.9628046549  W2        1810            0.0000000000
      5430      1810  TIP3      H2             22.0998216386       -9.6354456141       -6.5829146549  W2        1810            0.0000000000
      5431      1811  TIP3      OH2            21.3057516386       -9.6772356141       -4.9594346549  W2        1811            0.0000000000
      5432      1811  TIP3      H1             21.4525516386      -10.1972556141       -4.1693446549  W2        1811            0.0000000000
      5433      1811  TIP3      H2             21.3029216386       -8.7704756141       -4.6528446549  W2        1811            0.0000000000
      5434      1812  TIP3      OH2            17.7588616386      -12.4249056141       -4.4488946549  W2        1812            0.0000000000
      5435      1812  TIP3      H1             17.0727916386      -12.0726556141       -3.8819246549  W2        1812            0.0000000000
      5436      1812  TIP3      H2             18.2816516386      -11.6619456141       -4.6954646549  W2        1812            0.0000000000
      5437      1813  TIP3      OH2            21.3817816386       -6.9361556141       -4.2283246549  W2        1813            0.0000000000
      5438      1813  TIP3      H1             21.5426516386       -6.1364056141       -4.7290646549  W2        1813            0.0000000000
      5439      1813  TIP3      H2             21.1845616386       -6.6295556141       -3.3432646549  W2        1813            0.0000000000
      5440      1814  TIP3      OH2            20.1162216386      -20.2382356141       -4.6125646549  W2        1814            0.0000000000
      5441      1814  TIP3      H1             20.0327016386      -19.3499256141       -4.2659246549  W2        1814            0.0000000000
      5442      1814  TIP3      H2             21.0062516386      -20.5035656141       -4.3808846549  W2        1814            0.0000000000
      5443      1815  TIP3      OH2            18.3747516386       -9.8110156141       -5.5521146549  W2        1815            0.0000000000
      5444      1815  TIP3      H1             18.9669016386       -9.1115356141       -5.2758746549  W2        1815            0.0000000000
      5445      1815  TIP3      H2             18.8340516386      -10.2440656141       -6.2716546549  W2        1815            0.0000000000
      5446      1816  TIP3      OH2            16.6906716386      -17.1467156141       -6.4361746549  W2        1816            0.0000000000
      5447      1816  TIP3      H1             16.6459316386      -16.2074056141       -6.2574746549  W2        1816            0.0000000000
      5448      1816  TIP3      H2             15.8029916386      -17.3822256141       -6.7059646549  W2        1816            0.0000000000
      5449      1817  TIP3      OH2            17.4988716386      -22.3650556141        2.2369253451  W2        1817            0.0000000000
      5450      1817  TIP3      H1             17.2698516386      -22.3058056141        1.3094253451  W2        1817            0.0000000000
      5451      1817  TIP3      H2             17.0562116386      -23.1565056141        2.5433353451  W2        1817            0.0000000000
      5452      1818  TIP3      OH2            16.4292016386       -8.4243456141       -1.6024946549  W2        1818            0.0000000000
      5453      1818  TIP3      H1             15.5970616386       -7.9520756141       -1.5753546549  W2        1818            0.0000000000
      5454      1818  TIP3      H2             16.9750316386       -7.9145856141       -2.2011846549  W2        1818            0.0000000000
      5455      1819  TIP3      OH2            15.7175716386       -5.8119756141        9.7273053451  W2        1819            0.0000000000
      5456      1819  TIP3      H1             16.2577916386       -6.0285756141       10.4872253451  W2        1819            0.0000000000
      5457      1819  TIP3      H2             15.2363716386       -6.6173756141        9.5375553451  W2        1819            0.0000000000
      5458      1820  TIP3      OH2            20.3149116386       -6.8925356141       11.3477253451  W2        1820            0.0000000000
      5459      1820  TIP3      H1             21.0826316386       -7.3514556141       11.6886453451  W2        1820            0.0000000000
      5460      1820  TIP3      H2             20.2935316386       -7.1185556141       10.4178453451  W2        1820            0.0000000000
      5461      1821  TIP3      OH2            15.6245216386      -12.0015656141       10.6817353451  W2        1821            0.0000000000
      5462      1821  TIP3      H1             15.7685716386      -12.9034956141       10.3954053451  W2        1821            0.0000000000
      5463      1821  TIP3      H2             14.8522616386      -11.7153556141       10.1939653451  W2        1821            0.0000000000
      5464      1822  TIP3      OH2            19.9658916386      -11.6579956141       -7.1858046549  W2        1822            0.0000000000
      5465      1822  TIP3      H1             20.0303016386      -12.4520356141       -6.6551646549  W2        1822            0.0000000000
      5466      1822  TIP3      H2             20.6188116386      -11.7767156141       -7.8756046549  W2        1822            0.0000000000
      5467      1823  TIP3      OH2            22.2801316386      -12.0317556141       10.1143753451  W2        1823            0.0000000000
      5468      1823  TIP3      H1             21.9515116386      -11.7609456141        9.2571153451  W2        1823            0.0000000000
      5469      1823  TIP3      H2             22.4319516386      -12.9727756141       10.0268753451  W2        1823            0.0000000000
      5470      1824  TIP3      OH2            16.4571716386      -14.8012356141       10.1016653451  W2        1824            0.0000000000
      5471      1824  TIP3      H1             16.8652916386      -15.6585756141        9.9807253451  W2        1824            0.0000000000
      5472      1824  TIP3      H2             16.1969316386      -14.7871056141       11.0226953451  W2        1824            0.0000000000
      5473      1825  TIP3      OH2            21.1152716386      -13.6853756141       -4.8800046549  W2        1825            0.0000000000
      5474      1825  TIP3      H1             20.6554716386      -14.1695456141       -4.1941546549  W2        1825            0.0000000000
      5475      1825  TIP3      H2             21.3701416386      -14.3538356141       -5.5159546549  W2        1825            0.0000000000
      5476      1826  TIP3      OH2            20.4042016386      -15.7926656141        7.4759553451  W2        1826            0.0000000000
      5477      1826  TIP3      H1             19.7858116386      -15.1180056141        7.7564253451  W2        1826            0.0000000000
      5478      1826  TIP3      H2             20.7483216386      -15.4712756141        6.6425753451  W2        1826            0.0000000000
      5479      1827  TIP3      OH2            22.1863116386      -15.4421956141       -6.6176846549  W2        1827            0.0000000000
      5480      1827  TIP3      H1             22.0058116386      -15.5970756141       -7.5448546549  W2        1827            0.0000000000
      5481      1827  TIP3      H2             23.1363616386      -15.3343256141       -6.5728946549  W2        1827            0.0000000000
      5482      1828  TIP3      OH2            20.7435716386      -18.4375856141        8.5582653451  W2        1828            0.0000000000
      5483      1828  TIP3      H1             20.8936616386      -19.1664556141        7.9562353451  W2        1828            0.0000000000
      5484      1828  TIP3      H2             20.7458116386      -17.6604156141        7.9994853451  W2        1828            0.0000000000
      5485      1829  TIP3      OH2            21.1561416386      -20.0680056141        6.0510053451  W2        1829            0.0000000000
      5486      1829  TIP3      H1             21.6918916386      -19.6163356141        5.3989353451  W2        1829            0.0000000000
      5487      1829  TIP3      H2             20.3041016386      -20.1760256141        5.6284153451  W2        1829            0.0000000000
      5488      1830  TIP3      OH2            22.7379816386      -14.6283856141        6.2905253451  W2        1830            0.0000000000
      5489      1830  TIP3      H1             23.4884616386      -14.7846356141        5.7173053451  W2        1830            0.0000000000
      5490      1830  TIP3      H2             22.3988116386      -13.7767256141        6.0150753451  W2        1830            0.0000000000
      5491      1831  TIP3      OH2            19.2222016386      -17.2392356141       10.4698253451  W2        1831            0.0000000000
      5492      1831  TIP3      H1             18.4551016386      -17.7717556141       10.2595853451  W2        1831            0.0000000000
      5493      1831  TIP3      H2             19.9011016386      -17.5491956141        9.8704553451  W2        1831            0.0000000000
      5494      1832  TIP3      OH2            21.9616916386      -22.6114356141        6.4823653451  W2        1832            0.0000000000
      5495      1832  TIP3      H1             21.8636516386      -21.6651156141        6.3769853451  W2        1832            0.0000000000
      5496      1832  TIP3      H2             21.2193116386      -22.9840556141        6.0067153451  W2        1832            0.0000000000
      5497      1833  TIP3      OH2            23.2257416386      -18.2898956141       10.0462053451  W2        1833            0.0000000000
      5498      1833  TIP3      H1             22.9902816386      -18.5092256141       10.9476953451  W2        1833            0.0000000000
      5499      1833  TIP3      H2             22.4424316386      -18.4967756141        9.5364553451  W2        1833            0.0000000000
      5500      1834  TIP3      OH2            17.4024816386      -19.3188556141       10.1742953451  W2        1834            0.0000000000
      5501      1834  TIP3      H1             17.6142216386      -20.0252456141        9.5640453451  W2        1834            0.0000000000
      5502      1834  TIP3      H2             17.2912316386      -19.7562556141       11.0184153451  W2        1834            0.0000000000
      5503      1835  TIP3      OH2            22.1835016386      -23.3176956141        9.1536453451  W2        1835            0.0000000000
      5504      1835  TIP3      H1             22.8953416386      -23.9574756141        9.1395553451  W2        1835            0.0000000000
      5505      1835  TIP3      H2             22.0825416386      -23.0508656141        8.2399553451  W2        1835            0.0000000000
      5506      1836  TIP3      OH2            22.5372516386      -21.6348556141       11.2072753451  W2        1836            0.0000000000
      5507      1836  TIP3      H1             22.4054716386      -22.1104756141       10.3871253451  W2        1836            0.0000000000
      5508      1836  TIP3      H2             21.9379916386      -20.8904956141       11.1519853451  W2        1836            0.0000000000
      5509      1837  TIP3      OH2            22.0834816386       -4.7518256141       -5.6163246549  W2        1837            0.0000000000
      5510      1837  TIP3      H1             23.0165516386       -4.5939556141       -5.4724846549  W2        1837            0.0000000000
      5511      1837  TIP3      H2             21.8193616386       -4.0765256141       -6.2411746549  W2        1837            0.0000000000
      5512      1838  TIP3      OH2            15.6519716386      -10.1154456141       -6.1335146549  W2        1838            0.0000000000
      5513      1838  TIP3      H1             16.5658916386      -10.0365556141       -5.8601246549  W2        1838            0.0000000000
      5514      1838  TIP3      H2             15.6592816386      -10.8024856141       -6.7999546549  W2        1838            0.0000000000
      5515      1839  TIP3      OH2            14.3010316386       -4.7225956141       -1.0561246549  W2        1839            0.0000000000
      5516      1839  TIP3      H1             13.6537416386       -5.1844256141       -1.5890046549  W2        1839            0.0000000000
      5517      1839  TIP3      H2             14.6554916386       -5.3942656141       -0.4735046549  W2        1839            0.0000000000
      5518      1840  TIP3      OH2            15.1709516386       -6.6418956141        0.7484953451  W2        1840            0.0000000000
      5519      1840  TIP3      H1             14.8366316386       -7.5221656141        0.9205153451  W2        1840            0.0000000000
      5520      1840  TIP3      H2             15.3931916386       -6.2963956141        1.6130553451  W2        1840            0.0000000000
      5521      1841  TIP3      OH2            15.2509016386      -13.5663556141        3.1999853451  W2        1841            0.0000000000
      5522      1841  TIP3      H1             15.4351916386      -13.6481856141        2.2642753451  W2        1841            0.0000000000
      5523      1841  TIP3      H2             16.1001916386      -13.6906556141        3.6236253451  W2        1841            0.0000000000
      5524      1842  TIP3      OH2            14.8483816386      -18.2958556141        9.3408653451  W2        1842            0.0000000000
      5525      1842  TIP3      H1             15.7678716386      -18.4180256141        9.5771753451  W2        1842            0.0000000000
      5526      1842  TIP3      H2             14.3988316386      -19.0458856141        9.7302153451  W2        1842            0.0000000000
      5527      1843  TIP3      OH2            16.0696316386      -19.9836956141        2.2321553451  W2        1843            0.0000000000
      5528      1843  TIP3      H1             16.5147916386      -20.7754456141        2.5341253451  W2        1843            0.0000000000
      5529      1843  TIP3      H2             16.5359316386      -19.2671756141        2.6627153451  W2        1843            0.0000000000
      5530      1844  TIP3      OH2            14.3736616386      -16.9843956141        3.3011753451  W2        1844            0.0000000000
      5531      1844  TIP3      H1             14.8656416386      -17.2053456141        2.5103753451  W2        1844            0.0000000000
      5532      1844  TIP3      H2             14.7357516386      -16.1440556141        3.5821253451  W2        1844            0.0000000000
      5533      1845  TIP3      OH2            14.6873116386      -20.7264856141       -2.6445846549  W2        1845            0.0000000000
      5534      1845  TIP3      H1             13.7621516386      -20.5178256141       -2.7740346549  W2        1845            0.0000000000
      5535      1845  TIP3      H2             15.1413016386      -20.2424056141       -3.3343546549  W2        1845            0.0000000000
      5536      1846  TIP3      OH2            14.6508516386      -21.9885856141        5.6996653451  W2        1846            0.0000000000
      5537      1846  TIP3      H1             13.9859016386      -22.2345556141        6.3427553451  W2        1846            0.0000000000
      5538      1846  TIP3      H2             14.2079816386      -21.3665456141        5.1224653451  W2        1846            0.0000000000
      5539      1847  TIP3      OH2            16.8427816386       -8.8131756141        9.8442453451  W2        1847            0.0000000000
      5540      1847  TIP3      H1             16.0220316386       -8.6385256141        9.3837153451  W2        1847            0.0000000000
      5541      1847  TIP3      H2             16.5905616386       -8.8867056141       10.7646853451  W2        1847            0.0000000000
      5542      1848  TIP3      OH2            19.7970716386       -7.8390556141        6.1026453451  W2        1848            0.0000000000
      5543      1848  TIP3      H1             19.3721816386       -7.0292056141        5.8201053451  W2        1848            0.0000000000
      5544      1848  TIP3      H2             20.7013516386       -7.7536456141        5.8006253451  W2        1848            0.0000000000
      5545      1849  TIP3      OH2            17.1987416386       -4.5826656141        6.1501753451  W2        1849            0.0000000000
      5546      1849  TIP3      H1             16.4783816386       -4.1425656141        5.6989453451  W2        1849            0.0000000000
      5547      1849  TIP3      H2             16.8331416386       -4.8331956141        6.9985753451  W2        1849            0.0000000000
      5548      1850  TIP3      OH2            19.6660016386       -4.9822756141        5.1798953451  W2        1850            0.0000000000
      5549      1850  TIP3      H1             18.8012216386       -4.9104256141        5.5839053451  W2        1850            0.0000000000
      5550      1850  TIP3      H2             19.6109016386       -4.4355456141        4.3961453451  W2        1850            0.0000000000
      5551      1851  TIP3      OH2            16.6135516386       -5.9594156141        3.0603553451  W2        1851            0.0000000000
      5552      1851  TIP3      H1             16.5951516386       -6.3849056141        3.9175853451  W2        1851            0.0000000000
      5553      1851  TIP3      H2             17.4183416386       -6.2779156141        2.6515753451  W2        1851            0.0000000000
      5554      1852  TIP3      OH2            18.7548616386       -7.2495456141        1.7153453451  W2        1852            0.0000000000
      5555      1852  TIP3      H1             18.5359316386       -8.1658056141        1.8849453451  W2        1852            0.0000000000
      5556      1852  TIP3      H2             19.5790816386       -7.1095056141        2.1814853451  W2        1852            0.0000000000
      5557      1853  TIP3      OH2            21.2921116386       -6.7796156141        2.5641453451  W2        1853            0.0000000000
      5558      1853  TIP3      H1             21.5046816386       -7.6677156141        2.2772353451  W2        1853            0.0000000000
      5559      1853  TIP3      H2             21.3566216386       -6.8138456141        3.5185453451  W2        1853            0.0000000000
      5560      1854  TIP3      OH2            17.1272316386      -22.4815256141       -0.4695346549  W2        1854            0.0000000000
      5561      1854  TIP3      H1             16.3502116386      -22.7160356141       -0.9769446549  W2        1854            0.0000000000
      5562      1854  TIP3      H2             17.6575916386      -23.2783156141       -0.4607346549  W2        1854            0.0000000000
      5563      1855  TIP3      OH2            15.9635716386      -22.6837156141       -4.6659246549  W2        1855            0.0000000000
      5564      1855  TIP3      H1             16.4026416386      -22.0726656141       -5.2575746549  W2        1855            0.0000000000
      5565      1855  TIP3      H2             15.3298116386      -22.1453056141       -4.1919246549  W2        1855            0.0000000000
      5566      1856  TIP3      OH2            21.7064916386      -22.5548156141       -0.6562246549  W2        1856            0.0000000000
      5567      1856  TIP3      H1             22.5808316386      -22.1663856141       -0.6857946549  W2        1856            0.0000000000
      5568      1856  TIP3      H2             21.5705716386      -22.7700356141        0.2664953451  W2        1856            0.0000000000
      5569      1857  TIP3      OH2            15.8645216386       -6.7354956141       -3.7684146549  W2        1857            0.0000000000
      5570      1857  TIP3      H1             15.1795116386       -6.7736056141       -4.4359046549  W2        1857            0.0000000000
      5571      1857  TIP3      H2             15.8682416386       -5.8227356141       -3.4802046549  W2        1857            0.0000000000
      5572      1858  TIP3      OH2            17.8244816386      -20.7675656141       -6.2235146549  W2        1858            0.0000000000
      5573      1858  TIP3      H1             18.3158216386      -21.3973256141       -6.7509646549  W2        1858            0.0000000000
      5574      1858  TIP3      H2             18.4481116386      -20.4716256141       -5.5603946549  W2        1858            0.0000000000
      5575      1859  TIP3      OH2            22.8504916386      -20.4744156141       -3.7664646549  W2        1859            0.0000000000
      5576      1859  TIP3      H1             23.0286216386      -21.1210956141       -3.0836046549  W2        1859            0.0000000000
      5577      1859  TIP3      H2             22.7971116386      -19.6406456141       -3.2993546549  W2        1859            0.0000000000
      5578      1860  TIP3      OH2            17.0850316386      -21.9673356141        9.0480853451  W2        1860            0.0000000000
      5579      1860  TIP3      H1             16.7188516386      -22.7330756141        9.4905553451  W2        1860            0.0000000000
      5580      1860  TIP3      H2             17.9978816386      -21.9383156141        9.3345953451  W2        1860            0.0000000000
      5581      1861  TIP3      OH2            19.0581116386      -22.6168956141       10.5837953451  W2        1861            0.0000000000
      5582      1861  TIP3      H1             19.9564716386      -22.8908756141       10.3991353451  W2        1861            0.0000000000
      5583      1861  TIP3      H2             18.6714216386      -23.3592956141       11.0480553451  W2        1861            0.0000000000
      5584      1862  TIP3      OH2            17.6826416386       -5.8154156141       -6.7432046549  W2        1862            0.0000000000
      5585      1862  TIP3      H1             17.4151016386       -5.5291256141       -5.8698946549  W2        1862            0.0000000000
      5586      1862  TIP3      H2             18.4539016386       -6.3614956141       -6.5909546549  W2        1862            0.0000000000
      5587      1863  TIP3      OH2           -11.5065083614        5.5307043859       -0.5107846549  W2        1863            0.0000000000
      5588      1863  TIP3      H1            -11.4173983614        6.4745243859       -0.6430746549  W2        1863            0.0000000000
      5589      1863  TIP3      H2            -12.1447483614        5.2553443859       -1.1688446549  W2        1863            0.0000000000
      5590      1864  TIP3      OH2           -12.5733783614        4.7857743859        2.9080353451  W2        1864            0.0000000000
      5591      1864  TIP3      H1            -12.6116283614        4.1394043859        3.6129953451  W2        1864            0.0000000000
      5592      1864  TIP3      H2            -12.8957283614        4.3192143859        2.1369053451  W2        1864            0.0000000000
      5593      1865  TIP3      OH2           -20.2048783614        4.3999843859        4.5010253451  W2        1865            0.0000000000
      5594      1865  TIP3      H1            -20.1636683614        3.7743143859        5.2242653451  W2        1865            0.0000000000
      5595      1865  TIP3      H2            -19.5021083614        5.0238443859        4.6830653451  W2        1865            0.0000000000
      5596      1866  TIP3      OH2            -8.8673583614        7.7248143859        1.2095453451  W2        1866            0.0000000000
      5597      1866  TIP3      H1             -9.3080883614        7.0044143859        1.6601053451  W2        1866            0.0000000000
      5598      1866  TIP3      H2             -8.8803883614        8.4455343859        1.8393153451  W2        1866            0.0000000000
      5599      1867  TIP3      OH2           -19.2815683614        8.8498743859        3.0359353451  W2        1867            0.0000000000
      5600      1867  TIP3      H1            -19.6510483614        8.0479243859        2.6663653451  W2        1867            0.0000000000
      5601      1867  TIP3      H2            -18.3404583614        8.6813643859        3.0822753451  W2        1867            0.0000000000
      5602      1868  TIP3      OH2           -22.6715183614        2.5101343859       -1.5711846549  W2        1868            0.0000000000
      5603      1868  TIP3      H1            -23.1191783614        3.3560043859       -1.5895346549  W2        1868            0.0000000000
      5604      1868  TIP3      H2            -23.2323983614        1.9305543859       -2.0866746549  W2        1868            0.0000000000
      5605      1869  TIP3      OH2           -21.9609083614        4.6720943859        0.5546153451  W2        1869            0.0000000000
      5606      1869  TIP3      H1            -21.7475583614        3.9022543859        1.0819153451  W2        1869            0.0000000000
      5607      1869  TIP3      H2            -21.2231483614        4.7617643859       -0.0486246549  W2        1869            0.0000000000
      5608      1870  TIP3      OH2           -11.7558083614       12.8289843859        1.4215853451  W2        1870            0.0000000000
      5609      1870  TIP3      H1            -11.1361683614       12.1524543859        1.1485053451  W2        1870            0.0000000000
      5610      1870  TIP3      H2            -11.9640683614       12.6110643859        2.3300753451  W2        1870            0.0000000000
      5611      1871  TIP3      OH2           -14.1839383614        7.2179143859        3.3141353451  W2        1871            0.0000000000
      5612      1871  TIP3      H1            -13.8801483614        6.5320543859        2.7195453451  W2        1871            0.0000000000
      5613      1871  TIP3      H2            -13.4625383614        7.3367843859        3.9319353451  W2        1871            0.0000000000
      5614      1872  TIP3      OH2            -5.5209583614       -1.1805556141        4.1747553451  W2        1872            0.0000000000
      5615      1872  TIP3      H1             -5.4717383614       -0.5704356141        4.9106653451  W2        1872            0.0000000000
      5616      1872  TIP3      H2             -5.0954483614       -0.7194656141        3.4518653451  W2        1872            0.0000000000
      5617      1873  TIP3      OH2           -11.0432383614        1.6121543859        3.6416153451  W2        1873            0.0000000000
      5618      1873  TIP3      H1            -10.9006483614        0.6658543859        3.6617753451  W2        1873            0.0000000000
      5619      1873  TIP3      H2            -11.1493383614        1.8191343859        2.7131053451  W2        1873            0.0000000000
      5620      1874  TIP3      OH2           -17.8884083614       -0.2862056141        0.9140953451  W2        1874            0.0000000000
      5621      1874  TIP3      H1            -17.8452983614        0.5736443859        0.4957253451  W2        1874            0.0000000000
      5622      1874  TIP3      H2            -18.3459983614       -0.8387356141        0.2804153451  W2        1874            0.0000000000
      5623      1875  TIP3      OH2           -10.1661383614       -0.1556456141       -0.6850746549  W2        1875            0.0000000000
      5624      1875  TIP3      H1             -9.5197083614       -0.4843256141       -0.0603146549  W2        1875            0.0000000000
      5625      1875  TIP3      H2             -9.6561983614        0.3622543859       -1.3079346549  W2        1875            0.0000000000
      5626      1876  TIP3      OH2           -21.2682583614        2.1103743859        1.6762353451  W2        1876            0.0000000000
      5627      1876  TIP3      H1            -20.6145983614        1.5605443859        2.1082453451  W2        1876            0.0000000000
      5628      1876  TIP3      H2            -21.2443283614        1.8362743859        0.7594353451  W2        1876            0.0000000000
      5629      1877  TIP3      OH2           -16.1118083614        3.6605043859        0.8913853451  W2        1877            0.0000000000
      5630      1877  TIP3      H1            -15.4957083614        3.1340443859        1.4007853451  W2        1877            0.0000000000
      5631      1877  TIP3      H2            -16.6979283614        3.0203743859        0.4877453451  W2        1877            0.0000000000
      5632      1878  TIP3      OH2            -5.1294983614        0.2973643859        6.4107353451  W2        1878            0.0000000000
      5633      1878  TIP3      H1             -5.8180383614        0.9554343859        6.3153953451  W2        1878            0.0000000000
      5634      1878  TIP3      H2             -5.1140383614        0.1001543859        7.3472753451  W2        1878            0.0000000000
      5635      1879  TIP3      OH2           -19.0782183614       -1.3683656141        4.9881753451  W2        1879            0.0000000000
      5636      1879  TIP3      H1            -19.2970483614       -0.8383056141        4.2217753451  W2        1879            0.0000000000
      5637      1879  TIP3      H2            -19.7461283614       -1.1418156141        5.6353153451  W2        1879            0.0000000000
      5638      1880  TIP3      OH2           -11.7092383614        8.1317443859       -1.4679146549  W2        1880            0.0000000000
      5639      1880  TIP3      H1            -12.0047283614        7.8089743859       -2.3192246549  W2        1880            0.0000000000
      5640      1880  TIP3      H2            -12.0334583614        9.0314143859       -1.4266546549  W2        1880            0.0000000000
      5641      1881  TIP3      OH2           -16.5090783614        6.3072043859        5.2755453451  W2        1881            0.0000000000
      5642      1881  TIP3      H1            -17.2491683614        6.9053543859        5.3790653451  W2        1881            0.0000000000
      5643      1881  TIP3      H2            -15.7951283614        6.8611643859        4.9599053451  W2        1881            0.0000000000
      5644      1882  TIP3      OH2            -8.4022983614       -0.8647156141        1.2955153451  W2        1882            0.0000000000
      5645      1882  TIP3      H1             -8.6174983614       -1.6303756141        1.8281153451  W2        1882            0.0000000000
      5646      1882  TIP3      H2             -7.7465583614       -0.3922556141        1.8083653451  W2        1882            0.0000000000
      5647      1883  TIP3      OH2           -19.4844883614        0.5238143859        2.9403953451  W2        1883            0.0000000000
      5648      1883  TIP3      H1            -18.8708583614        1.1565743859        3.3136353451  W2        1883            0.0000000000
      5649      1883  TIP3      H2            -18.9724183614        0.0513143859        2.2840853451  W2        1883            0.0000000000
      5650      1884  TIP3      OH2           -18.1016483614        8.2715043859        6.0626953451  W2        1884            0.0000000000
      5651      1884  TIP3      H1            -18.1068883614        9.1508543859        5.6846253451  W2        1884            0.0000000000
      5652      1884  TIP3      H2            -18.9552383614        8.1879143859        6.4876853451  W2        1884            0.0000000000
      5653      1885  TIP3      OH2           -21.9805583614        7.9422943859       -3.1553746549  W2        1885            0.0000000000
      5654      1885  TIP3      H1            -22.2524683614        8.1713943859       -4.0440846549  W2        1885            0.0000000000
      5655      1885  TIP3      H2            -21.9349883614        8.7801743859       -2.6948446549  W2        1885            0.0000000000
      5656      1886  TIP3      OH2            -8.3555883614        9.5638843859        3.5574753451  W2        1886            0.0000000000
      5657      1886  TIP3      H1             -9.2972183614        9.6222743859        3.7191653451  W2        1886            0.0000000000
      5658      1886  TIP3      H2             -8.0789783614       10.4699343859        3.4204453451  W2        1886            0.0000000000
      5659      1887  TIP3      OH2            -8.0548883614       -2.1495856141        4.9748653451  W2        1887            0.0000000000
      5660      1887  TIP3      H1             -8.7909683614       -1.5388756141        4.9369953451  W2        1887            0.0000000000
      5661      1887  TIP3      H2             -7.3714883614       -1.7346856141        4.4485053451  W2        1887            0.0000000000
      5662      1888  TIP3      OH2           -15.0517483614       -4.0628556141        2.4406653451  W2        1888            0.0000000000
      5663      1888  TIP3      H1            -15.1693283614       -5.0112556141        2.3864953451  W2        1888            0.0000000000
      5664      1888  TIP3      H2            -15.9067383614       -3.7302456141        2.7137753451  W2        1888            0.0000000000
      5665      1889  TIP3      OH2           -10.1034683614       11.3452343859        0.1826353451  W2        1889            0.0000000000
      5666      1889  TIP3      H1             -9.6782383614       10.6380243859       -0.3024046549  W2        1889            0.0000000000
      5667      1889  TIP3      H2             -9.7864683614       12.1465043859       -0.2341446549  W2        1889            0.0000000000
      5668      1890  TIP3      OH2            -8.9438183614        9.2460843859       -1.3087046549  W2        1890            0.0000000000
      5669      1890  TIP3      H1             -9.2013383614        8.5560943859       -1.9201146549  W2        1890            0.0000000000
      5670      1890  TIP3      H2             -8.8727383614        8.8032043859       -0.4631146549  W2        1890            0.0000000000
      5671      1891  TIP3      OH2            -7.2577983614        7.8127543859        7.1686453451  W2        1891            0.0000000000
      5672      1891  TIP3      H1             -7.1181683614        7.2210043859        6.4293453451  W2        1891            0.0000000000
      5673      1891  TIP3      H2             -7.0905183614        8.6853443859        6.8125253451  W2        1891            0.0000000000
      5674      1892  TIP3      OH2           -12.7852583614        4.7747043859       -3.0587546549  W2        1892            0.0000000000
      5675      1892  TIP3      H1            -13.4967083614        5.3096743859       -3.4107046549  W2        1892            0.0000000000
      5676      1892  TIP3      H2            -12.0942983614        4.8299143859       -3.7188646549  W2        1892            0.0000000000
      5677      1893  TIP3      OH2           -12.7313383614        3.2321343859       -6.0202546549  W2        1893            0.0000000000
      5678      1893  TIP3      H1            -12.0303483614        3.2548243859       -5.3688546549  W2        1893            0.0000000000
      5679      1893  TIP3      H2            -12.4290483614        2.6041043859       -6.6763246549  W2        1893            0.0000000000
      5680      1894  TIP3      OH2            -5.4158683614        4.1525543859        5.2346853451  W2        1894            0.0000000000
      5681      1894  TIP3      H1             -6.0684583614        4.8471143859        5.3237753451  W2        1894            0.0000000000
      5682      1894  TIP3      H2             -4.9508383614        4.3626443859        4.4248453451  W2        1894            0.0000000000
      5683      1895  TIP3      OH2            -9.3794883614        4.9840343859       -2.1071646549  W2        1895            0.0000000000
      5684      1895  TIP3      H1            -10.1113883614        5.2124043859       -1.5341046549  W2        1895            0.0000000000
      5685      1895  TIP3      H2             -8.9322683614        4.2703043859       -1.6524146549  W2        1895            0.0000000000
      5686      1896  TIP3      OH2            -9.4821383614        3.1582943859        6.9605353451  W2        1896            0.0000000000
      5687      1896  TIP3      H1             -9.4022283614        3.9217343859        7.5323853451  W2        1896            0.0000000000
      5688      1896  TIP3      H2            -10.0833683614        3.4375343859        6.2700453451  W2        1896            0.0000000000
      5689      1897  TIP3      OH2           -17.7341183614        5.6146543859       -0.2246646549  W2        1897            0.0000000000
      5690      1897  TIP3      H1            -18.0645983614        5.2439943859       -1.0429646549  W2        1897            0.0000000000
      5691      1897  TIP3      H2            -17.1457083614        4.9440543859        0.1221653451  W2        1897            0.0000000000
      5692      1898  TIP3      OH2           -16.3673683614        9.0427143859        2.4565553451  W2        1898            0.0000000000
      5693      1898  TIP3      H1            -16.4622383614        8.4640243859        1.7000153451  W2        1898            0.0000000000
      5694      1898  TIP3      H2            -15.6380083614        8.6712843859        2.9528353451  W2        1898            0.0000000000
      5695      1899  TIP3      OH2           -17.3675683614        4.3832143859        3.4088353451  W2        1899            0.0000000000
      5696      1899  TIP3      H1            -16.8023183614        4.5046343859        2.6459553451  W2        1899            0.0000000000
      5697      1899  TIP3      H2            -17.0486783614        5.0207143859        4.0476853451  W2        1899            0.0000000000
      5698      1900  TIP3      OH2           -11.0583483614        9.8864043859        4.1428853451  W2        1900            0.0000000000
      5699      1900  TIP3      H1            -11.2986883614       10.5487143859        4.7908053451  W2        1900            0.0000000000
      5700      1900  TIP3      H2            -11.2565283614        9.0519243859        4.5678453451  W2        1900            0.0000000000
      5701      1901  TIP3      OH2           -16.4874983614        8.7824843859        8.1260253451  W2        1901            0.0000000000
      5702      1901  TIP3      H1            -16.7987483614        9.5648043859        8.5813453451  W2        1901            0.0000000000
      5703      1901  TIP3      H2            -17.1374783614        8.6293943859        7.4402253451  W2        1901            0.0000000000
      5704      1902  TIP3      OH2           -10.5085383614        4.1463243859       -4.4220446549  W2        1902            0.0000000000
      5705      1902  TIP3      H1             -9.9289883614        4.2963543859       -3.6751546549  W2        1902            0.0000000000
      5706      1902  TIP3      H2            -10.0945383614        4.6170643859       -5.1454046549  W2        1902            0.0000000000
      5707      1903  TIP3      OH2           -19.5675083614        4.9805943859        7.3545953451  W2        1903            0.0000000000
      5708      1903  TIP3      H1            -19.4971883614        5.6312743859        8.0530953451  W2        1903            0.0000000000
      5709      1903  TIP3      H2            -20.4582883614        5.0833443859        7.0196853451  W2        1903            0.0000000000
      5710      1904  TIP3      OH2           -12.7820483614       10.8831743859       -0.9867346549  W2        1904            0.0000000000
      5711      1904  TIP3      H1            -12.3082883614       11.1788043859       -0.2093146549  W2        1904            0.0000000000
      5712      1904  TIP3      H2            -13.3451183614       11.6213343859       -1.2197746549  W2        1904            0.0000000000
      5713      1905  TIP3      OH2           -18.2479083614       10.8539843859        8.8894053451  W2        1905            0.0000000000
      5714      1905  TIP3      H1            -18.2403783614       10.7179543859        7.9419553451  W2        1905            0.0000000000
      5715      1905  TIP3      H2            -19.1638683614       10.7367943859        9.1414053451  W2        1905            0.0000000000
      5716      1906  TIP3      OH2            -6.8096983614       -4.1036356141       -4.6090746549  W2        1906            0.0000000000
      5717      1906  TIP3      H1             -7.7096283614       -3.9647356141       -4.3140146549  W2        1906            0.0000000000
      5718      1906  TIP3      H2             -6.5578583614       -3.2721756141       -5.0109046549  W2        1906            0.0000000000
      5719      1907  TIP3      OH2           -18.7438483614        4.6840843859       -2.6353846549  W2        1907            0.0000000000
      5720      1907  TIP3      H1            -19.0357183614        5.4522543859       -3.1262546549  W2        1907            0.0000000000
      5721      1907  TIP3      H2            -19.4183283614        4.0247043859       -2.7982446549  W2        1907            0.0000000000
      5722      1908  TIP3      OH2            -5.6205583614       10.2626043859       -6.2326846549  W2        1908            0.0000000000
      5723      1908  TIP3      H1             -5.5472083614       11.2016243859       -6.0621546549  W2        1908            0.0000000000
      5724      1908  TIP3      H2             -4.7150483614        9.9574643859       -6.2889546549  W2        1908            0.0000000000
      5725      1909  TIP3      OH2           -22.6508383614        7.0470043859        6.1795953451  W2        1909            0.0000000000
      5726      1909  TIP3      H1            -23.1519983614        7.0189443859        5.3645653451  W2        1909            0.0000000000
      5727      1909  TIP3      H2            -22.6454683614        6.1413243859        6.4893253451  W2        1909            0.0000000000
      5728      1910  TIP3      OH2           -22.9005683614        9.8273843859        3.0636153451  W2        1910            0.0000000000
      5729      1910  TIP3      H1            -21.9545083614        9.6830843859        3.0445653451  W2        1910            0.0000000000
      5730      1910  TIP3      H2            -23.0129383614       10.6116643859        3.6007353451  W2        1910            0.0000000000
      5731      1911  TIP3      OH2            -4.7027183614       10.4933543859        8.7459853451  W2        1911            0.0000000000
      5732      1911  TIP3      H1             -4.7520383614        9.5381643859        8.7087453451  W2        1911            0.0000000000
      5733      1911  TIP3      H2             -5.5294883614       10.7608843859        9.1473653451  W2        1911            0.0000000000
      5734      1912  TIP3      OH2           -13.7243183614       10.0672743859        7.6221253451  W2        1912            0.0000000000
      5735      1912  TIP3      H1            -13.6368583614       10.8937343859        8.0970353451  W2        1912            0.0000000000
      5736      1912  TIP3      H2            -14.5878083614        9.7376543859        7.8710553451  W2        1912            0.0000000000
      5737      1913  TIP3      OH2           -13.3097383614       13.8396443859       -2.5718146549  W2        1913            0.0000000000
      5738      1913  TIP3      H1            -13.3851383614       13.7183643859       -3.5182946549  W2        1913            0.0000000000
      5739      1913  TIP3      H2            -13.2768683614       14.7889143859       -2.4533546549  W2        1913            0.0000000000
      5740      1914  TIP3      OH2           -19.6563583614       12.6283443859       -0.7909146549  W2        1914            0.0000000000
      5741      1914  TIP3      H1            -19.5043183614       12.2803843859        0.0877353451  W2        1914            0.0000000000
      5742      1914  TIP3      H2            -20.5073183614       12.2720743859       -1.0461946549  W2        1914            0.0000000000
      5743      1915  TIP3      OH2           -10.2081383614       12.9936643859       -5.5695746549  W2        1915            0.0000000000
      5744      1915  TIP3      H1             -9.8332983614       12.2492743859       -6.0403146549  W2        1915            0.0000000000
      5745      1915  TIP3      H2            -10.2037683614       12.7237243859       -4.6512446549  W2        1915            0.0000000000
      5746      1916  TIP3      OH2           -10.5393283614       12.9193743859       -2.8203546549  W2        1916            0.0000000000
      5747      1916  TIP3      H1            -11.4743483614       13.0195643859       -2.6416546549  W2        1916            0.0000000000
      5748      1916  TIP3      H2            -10.2591383614       12.2099743859       -2.2420346549  W2        1916            0.0000000000
      5749      1917  TIP3      OH2            -7.5507383614        1.9866043859        9.2262053451  W2        1917            0.0000000000
      5750      1917  TIP3      H1             -7.9580583614        2.4671643859        8.5055353451  W2        1917            0.0000000000
      5751      1917  TIP3      H2             -7.5101683614        1.0812043859        8.9182853451  W2        1917            0.0000000000
      5752      1918  TIP3      OH2           -20.4017883614        8.3705443859        7.2228753451  W2        1918            0.0000000000
      5753      1918  TIP3      H1            -20.1856583614        8.0091043859        8.0824553451  W2        1918            0.0000000000
      5754      1918  TIP3      H2            -21.2573183614        7.9959243859        7.0132253451  W2        1918            0.0000000000
      5755      1919  TIP3      OH2           -17.7829883614       -3.1594056141        3.2182953451  W2        1919            0.0000000000
      5756      1919  TIP3      H1            -18.6446183614       -3.2465856141        2.8105853451  W2        1919            0.0000000000
      5757      1919  TIP3      H2            -17.8054183614       -2.3033956141        3.6460553451  W2        1919            0.0000000000
      5758      1920  TIP3      OH2           -13.1202083614       -3.4373656141        6.5929953451  W2        1920            0.0000000000
      5759      1920  TIP3      H1            -12.6998983614       -3.8526556141        7.3460553451  W2        1920            0.0000000000
      5760      1920  TIP3      H2            -14.0532483614       -3.6160356141        6.7101953451  W2        1920            0.0000000000
      5761      1921  TIP3      OH2            -9.7937183614        0.3181543859        7.4464453451  W2        1921            0.0000000000
      5762      1921  TIP3      H1            -10.3077683614        0.1923743859        8.2440453451  W2        1921            0.0000000000
      5763      1921  TIP3      H2             -9.9492483614        1.2304643859        7.2020653451  W2        1921            0.0000000000
      5764      1922  TIP3      OH2            -9.0312283614        5.1791543859       -6.7922546549  W2        1922            0.0000000000
      5765      1922  TIP3      H1             -8.9891483614        4.9565443859       -7.7222546549  W2        1922            0.0000000000
      5766      1922  TIP3      H2             -8.1820183614        5.5778643859       -6.6022646549  W2        1922            0.0000000000
      5767      1923  TIP3      OH2           -13.4584783614       -0.9450256141       -6.1219246549  W2        1923            0.0000000000
      5768      1923  TIP3      H1            -13.7119983614       -0.9258656141       -5.1991146549  W2        1923            0.0000000000
      5769      1923  TIP3      H2            -13.7152683614       -1.8164856141       -6.4233046549  W2        1923            0.0000000000
      5770      1924  TIP3      OH2           -17.6919783614        1.8060443859        4.3133153451  W2        1924            0.0000000000
      5771      1924  TIP3      H1            -18.3337683614        1.7657743859        5.0223253451  W2        1924            0.0000000000
      5772      1924  TIP3      H2            -17.6547783614        2.7325143859        4.0756153451  W2        1924            0.0000000000
      5773      1925  TIP3      OH2           -17.6950683614        2.0270543859       -0.7746846549  W2        1925            0.0000000000
      5774      1925  TIP3      H1            -18.5877783614        1.6866643859       -0.8333046549  W2        1925            0.0000000000
      5775      1925  TIP3      H2            -17.2444083614        1.6501443859       -1.5303646549  W2        1925            0.0000000000
      5776      1926  TIP3      OH2           -12.1595183614        2.4430843859       -1.9576046549  W2        1926            0.0000000000
      5777      1926  TIP3      H1            -12.5684883614        3.2579443859       -2.2491246549  W2        1926            0.0000000000
      5778      1926  TIP3      H2            -11.4388983614        2.3030943859       -2.5718946549  W2        1926            0.0000000000
      5779      1927  TIP3      OH2           -13.0573583614        2.6187243859        9.5304653451  W2        1927            0.0000000000
      5780      1927  TIP3      H1            -13.6199783614        1.9138843859        9.8512453451  W2        1927            0.0000000000
      5781      1927  TIP3      H2            -12.2310183614        2.4979143859        9.9982253451  W2        1927            0.0000000000
      5782      1928  TIP3      OH2           -11.1547483614        1.8891243859        0.8563653451  W2        1928            0.0000000000
      5783      1928  TIP3      H1            -11.3502983614        2.4948043859        0.1414253451  W2        1928            0.0000000000
      5784      1928  TIP3      H2            -10.9734883614        1.0556443859        0.4219953451  W2        1928            0.0000000000
      5785      1929  TIP3      OH2           -19.9419283614        2.1263943859        6.1805153451  W2        1929            0.0000000000
      5786      1929  TIP3      H1            -19.9799883614        2.5265543859        7.0492253451  W2        1929            0.0000000000
      5787      1929  TIP3      H2            -20.4328183614        1.3096343859        6.2708053451  W2        1929            0.0000000000
      5788      1930  TIP3      OH2           -16.5761883614       -0.4993756141       -7.0208846549  W2        1930            0.0000000000
      5789      1930  TIP3      H1            -17.0071183614       -0.9443656141       -6.2911446549  W2        1930            0.0000000000
      5790      1930  TIP3      H2            -17.2943183614       -0.1277456141       -7.5331346549  W2        1930            0.0000000000
      5791      1931  TIP3      OH2           -23.3338483614       -0.7574256141        0.0309853451  W2        1931            0.0000000000
      5792      1931  TIP3      H1            -22.7030783614       -0.7862156141        0.7503753451  W2        1931            0.0000000000
      5793      1931  TIP3      H2            -22.8844183614       -1.1825556141       -0.6994246549  W2        1931            0.0000000000
      5794      1932  TIP3      OH2           -22.0596383614       -0.0112256141       -4.5449746549  W2        1932            0.0000000000
      5795      1932  TIP3      H1            -21.5854683614        0.5797643859       -5.1298846549  W2        1932            0.0000000000
      5796      1932  TIP3      H2            -22.7769983614        0.5190643859       -4.1979646549  W2        1932            0.0000000000
      5797      1933  TIP3      OH2           -11.8908283614        3.5272543859        5.5276053451  W2        1933            0.0000000000
      5798      1933  TIP3      H1            -11.5673483614        2.8962243859        4.8846553451  W2        1933            0.0000000000
      5799      1933  TIP3      H2            -12.3308983614        2.9924743859        6.1883453451  W2        1933            0.0000000000
      5800      1934  TIP3      OH2           -15.1135383614       -0.5451956141        0.3117253451  W2        1934            0.0000000000
      5801      1934  TIP3      H1            -16.0244283614       -0.4885156141        0.6003253451  W2        1934            0.0000000000
      5802      1934  TIP3      H2            -14.6082483614       -0.6056456141        1.1224453451  W2        1934            0.0000000000
      5803      1935  TIP3      OH2           -20.2851983614        1.0834343859       -0.8615146549  W2        1935            0.0000000000
      5804      1935  TIP3      H1            -21.1743983614        1.1829843859       -1.2015546549  W2        1935            0.0000000000
      5805      1935  TIP3      H2            -19.9887083614        0.2417343859       -1.2077246549  W2        1935            0.0000000000
      5806      1936  TIP3      OH2           -16.6320183614        1.0836943859       -3.2050546549  W2        1936            0.0000000000
      5807      1936  TIP3      H1            -15.7004683614        1.2126943859       -3.0267446549  W2        1936            0.0000000000
      5808      1936  TIP3      H2            -16.8469883614        1.7531243859       -3.8545846549  W2        1936            0.0000000000
      5809      1937  TIP3      OH2           -10.7083483614       -1.3105656141        3.5759053451  W2        1937            0.0000000000
      5810      1937  TIP3      H1            -11.3851883614       -1.1792556141        4.2398753451  W2        1937            0.0000000000
      5811      1937  TIP3      H2            -11.1938583614       -1.4656156141        2.7656753451  W2        1937            0.0000000000
      5812      1938  TIP3      OH2           -17.9579983614        2.2779143859       -5.6384446549  W2        1938            0.0000000000
      5813      1938  TIP3      H1            -18.5004883614        1.8982943859       -6.3296846549  W2        1938            0.0000000000
      5814      1938  TIP3      H2            -17.1245083614        2.4723843859       -6.0670346549  W2        1938            0.0000000000
      5815      1939  TIP3      OH2            -7.4208383614       14.3609743859        9.8526653451  W2        1939            0.0000000000
      5816      1939  TIP3      H1             -7.2209683614       14.7851643859        9.0181953451  W2        1939            0.0000000000
      5817      1939  TIP3      H2             -6.7654683614       14.7047943859       10.4597053451  W2        1939            0.0000000000
      5818      1940  TIP3      OH2           -19.8228583614        6.8351043859        9.4607153451  W2        1940            0.0000000000
      5819      1940  TIP3      H1            -19.0906183614        7.0896943859       10.0221653451  W2        1940            0.0000000000
      5820      1940  TIP3      H2            -20.6029883614        7.0396443859        9.9762553451  W2        1940            0.0000000000
      5821      1941  TIP3      OH2           -13.7935683614        2.2421043859        2.1986853451  W2        1941            0.0000000000
      5822      1941  TIP3      H1            -13.2292283614        1.6957643859        1.6516453451  W2        1941            0.0000000000
      5823      1941  TIP3      H2            -13.9412283614        1.7202943859        2.9874453451  W2        1941            0.0000000000
      5824      1942  TIP3      OH2           -18.7915983614       -1.6212856141       -1.3828346549  W2        1942            0.0000000000
      5825      1942  TIP3      H1            -19.1086483614       -2.5237556141       -1.4182946549  W2        1942            0.0000000000
      5826      1942  TIP3      H2            -18.0101883614       -1.6195456141       -1.9356746549  W2        1942            0.0000000000
      5827      1943  TIP3      OH2           -15.1669783614        0.6307143859        4.6127253451  W2        1943            0.0000000000
      5828      1943  TIP3      H1            -16.0024483614        1.0846643859        4.7229653451  W2        1943            0.0000000000
      5829      1943  TIP3      H2            -14.6429183614        0.9065643859        5.3647153451  W2        1943            0.0000000000
      5830      1944  TIP3      OH2           -14.6227183614        6.8434843859       -3.7026346549  W2        1944            0.0000000000
      5831      1944  TIP3      H1            -15.3676183614        6.3360143859       -4.0248446549  W2        1944            0.0000000000
      5832      1944  TIP3      H2            -14.7569983614        6.8922843859       -2.7561546549  W2        1944            0.0000000000
      5833      1945  TIP3      OH2            -7.4728283614        5.9763043859        5.0841253451  W2        1945            0.0000000000
      5834      1945  TIP3      H1             -6.8309483614        6.4329343859        4.5403453451  W2        1945            0.0000000000
      5835      1945  TIP3      H2             -8.3031383614        6.0895443859        4.6215353451  W2        1945            0.0000000000
      5836      1946  TIP3      OH2           -10.7250383614       -0.3425256141       -5.5033746549  W2        1946            0.0000000000
      5837      1946  TIP3      H1            -11.6636183614       -0.2309656141       -5.6544946549  W2        1946            0.0000000000
      5838      1946  TIP3      H2            -10.4278283614        0.5141643859       -5.1968046549  W2        1946            0.0000000000
      5839      1947  TIP3      OH2           -13.1035083614        7.0278143859        7.5342753451  W2        1947            0.0000000000
      5840      1947  TIP3      H1            -13.4488983614        6.6460543859        8.3412353451  W2        1947            0.0000000000
      5841      1947  TIP3      H2            -13.3034983614        7.9611743859        7.6055653451  W2        1947            0.0000000000
      5842      1948  TIP3      OH2           -10.0066883614        1.5247443859       -3.8426346549  W2        1948            0.0000000000
      5843      1948  TIP3      H1             -9.1147883614        1.3872443859       -3.5235146549  W2        1948            0.0000000000
      5844      1948  TIP3      H2             -9.9503283614        2.3153543859       -4.3792846549  W2        1948            0.0000000000
      5845      1949  TIP3      OH2           -19.4978883614        6.1384843859        2.0671553451  W2        1949            0.0000000000
      5846      1949  TIP3      H1            -18.7531683614        6.1360543859        1.4658053451  W2        1949            0.0000000000
      5847      1949  TIP3      H2            -19.4202283614        5.3148643859        2.5486653451  W2        1949            0.0000000000
      5848      1950  TIP3      OH2           -12.4973083614        8.3019143859       -4.6771746549  W2        1950            0.0000000000
      5849      1950  TIP3      H1            -12.7924683614        9.1287043859       -4.2956946549  W2        1950            0.0000000000
      5850      1950  TIP3      H2            -13.2003083614        7.6826043859       -4.4810346549  W2        1950            0.0000000000
      5851      1951  TIP3      OH2           -22.4899183614        4.5991743859        7.3820053451  W2        1951            0.0000000000
      5852      1951  TIP3      H1            -22.2670583614        4.1811343859        8.2137553451  W2        1951            0.0000000000
      5853      1951  TIP3      H2            -23.0919083614        3.9866743859        6.9592853451  W2        1951            0.0000000000
      5854      1952  TIP3      OH2           -15.4734283614        4.1161643859        9.5949753451  W2        1952            0.0000000000
      5855      1952  TIP3      H1            -15.7693483614        3.9504643859        8.6998853451  W2        1952            0.0000000000
      5856      1952  TIP3      H2            -14.5419083614        3.8961943859        9.5843653451  W2        1952            0.0000000000
      5857      1953  TIP3      OH2           -10.8531483614        9.4893643859        7.4847753451  W2        1953            0.0000000000
      5858      1953  TIP3      H1            -11.7537183614        9.6726243859        7.2171653451  W2        1953            0.0000000000
      5859      1953  TIP3      H2            -10.8190383614        9.7482943859        8.4056553451  W2        1953            0.0000000000
      5860      1954  TIP3      OH2            -5.1218183614        1.7341543859       -4.1479646549  W2        1954            0.0000000000
      5861      1954  TIP3      H1             -5.6761883614        1.3379543859       -4.8202146549  W2        1954            0.0000000000
      5862      1954  TIP3      H2             -5.0214583614        2.6446743859       -4.4256346549  W2        1954            0.0000000000
      5863      1955  TIP3      OH2            -5.1586183614        7.5343243859        8.6891853451  W2        1955            0.0000000000
      5864      1955  TIP3      H1             -6.0097683614        7.7727043859        8.3218253451  W2        1955            0.0000000000
      5865      1955  TIP3      H2             -4.5682783614        7.5176443859        7.9358953451  W2        1955            0.0000000000
      5866      1956  TIP3      OH2            -6.8266483614       10.5201943859       -3.6827546549  W2        1956            0.0000000000
      5867      1956  TIP3      H1             -7.1995383614        9.6945743859       -3.3736946549  W2        1956            0.0000000000
      5868      1956  TIP3      H2             -6.5492983614       10.3371343859       -4.5804146549  W2        1956            0.0000000000
      5869      1957  TIP3      OH2            -9.6662583614        5.3281443859        3.3384353451  W2        1957            0.0000000000
      5870      1957  TIP3      H1            -10.5945683614        5.0963343859        3.3113653451  W2        1957            0.0000000000
      5871      1957  TIP3      H2             -9.2151483614        4.5511243859        3.0083153451  W2        1957            0.0000000000
      5872      1958  TIP3      OH2           -17.1229483614        9.6563043859       -0.5286946549  W2        1958            0.0000000000
      5873      1958  TIP3      H1            -16.5957283614       10.4297443859       -0.7288146549  W2        1958            0.0000000000
      5874      1958  TIP3      H2            -18.0030983614        9.8812243859       -0.8302946549  W2        1958            0.0000000000
      5875      1959  TIP3      OH2           -21.3681783614        4.5187143859       -5.9414546549  W2        1959            0.0000000000
      5876      1959  TIP3      H1            -20.7521883614        5.1454343859       -5.5619746549  W2        1959            0.0000000000
      5877      1959  TIP3      H2            -22.2299183614        4.8346943859       -5.6698046549  W2        1959            0.0000000000
      5878      1960  TIP3      OH2           -15.6957183614        7.3192943859       -0.9522646549  W2        1960            0.0000000000
      5879      1960  TIP3      H1            -15.9367183614        8.2447343859       -0.9107346549  W2        1960            0.0000000000
      5880      1960  TIP3      H2            -16.4363583614        6.8604243859       -0.5558746549  W2        1960            0.0000000000
      5881      1961  TIP3      OH2           -15.1810583614       11.4686543859        5.3628453451  W2        1961            0.0000000000
      5882      1961  TIP3      H1            -14.8185883614       12.3232143859        5.1292853451  W2        1961            0.0000000000
      5883      1961  TIP3      H2            -14.6495383614       11.1768143859        6.1034753451  W2        1961            0.0000000000
      5884      1962  TIP3      OH2           -17.0126383614       12.3410543859       -1.4070446549  W2        1962            0.0000000000
      5885      1962  TIP3      H1            -17.9625883614       12.4467943859       -1.3557146549  W2        1962            0.0000000000
      5886      1962  TIP3      H2            -16.6608283614       13.1617943859       -1.0622946549  W2        1962            0.0000000000
      5887      1963  TIP3      OH2           -11.6369783614        7.5677243859        5.0634053451  W2        1963            0.0000000000
      5888      1963  TIP3      H1            -12.0628483614        7.3398943859        5.8898053451  W2        1963            0.0000000000
      5889      1963  TIP3      H2            -11.0563983614        6.8289043859        4.8809353451  W2        1963            0.0000000000
      5890      1964  TIP3      OH2            -9.4340883614        8.4967743859       -5.8626946549  W2        1964            0.0000000000
      5891      1964  TIP3      H1             -9.0807783614        8.1167543859       -5.0583446549  W2        1964            0.0000000000
      5892      1964  TIP3      H2            -10.3827383614        8.4032543859       -5.7757646549  W2        1964            0.0000000000
      5893      1965  TIP3      OH2            -8.9785583614       12.1196743859        7.5328853451  W2        1965            0.0000000000
      5894      1965  TIP3      H1             -9.5802383614       11.5639643859        7.0375153451  W2        1965            0.0000000000
      5895      1965  TIP3      H2             -8.6971883614       12.7866543859        6.9066253451  W2        1965            0.0000000000
      5896      1966  TIP3      OH2            -4.9306483614       12.9760243859       -5.6616746549  W2        1966            0.0000000000
      5897      1966  TIP3      H1             -4.1868583614       13.5620743859       -5.8015146549  W2        1966            0.0000000000
      5898      1966  TIP3      H2             -5.6248383614       13.5446043859       -5.3284346549  W2        1966            0.0000000000
      5899      1967  TIP3      OH2           -20.8559683614       -0.6475556141        6.9401453451  W2        1967            0.0000000000
      5900      1967  TIP3      H1            -21.7487383614       -0.3090156141        6.8725453451  W2        1967            0.0000000000
      5901      1967  TIP3      H2            -20.9546883614       -1.5029456141        7.3582253451  W2        1967            0.0000000000
      5902      1968  TIP3      OH2            -8.5681583614        7.1689743859       -3.6359046549  W2        1968            0.0000000000
      5903      1968  TIP3      H1             -8.8453983614        6.4409043859       -3.0797946549  W2        1968            0.0000000000
      5904      1968  TIP3      H2             -7.6408583614        7.2881743859       -3.4306446549  W2        1968            0.0000000000
      5905      1969  TIP3      OH2           -21.2047683614       11.1568843859        5.3750853451  W2        1969            0.0000000000
      5906      1969  TIP3      H1            -20.9877383614       10.2251243859        5.3440553451  W2        1969            0.0000000000
      5907      1969  TIP3      H2            -20.9584183614       11.4313843859        6.2583653451  W2        1969            0.0000000000
      5908      1970  TIP3      OH2           -15.3433083614        9.6083843859       -7.4156946549  W2        1970            0.0000000000
      5909      1970  TIP3      H1            -15.1043283614        8.8601943859       -7.9628046549  W2        1970            0.0000000000
      5910      1970  TIP3      H2            -15.6121783614        9.2205543859       -6.5829146549  W2        1970            0.0000000000
      5911      1971  TIP3      OH2           -16.4062483614        9.1787643859       -4.9594346549  W2        1971            0.0000000000
      5912      1971  TIP3      H1            -16.2594483614        8.6587443859       -4.1693446549  W2        1971            0.0000000000
      5913      1971  TIP3      H2            -16.4090783614       10.0855243859       -4.6528446549  W2        1971            0.0000000000
      5914      1972  TIP3      OH2           -19.9531383614        6.4310943859       -4.4488946549  W2        1972            0.0000000000
      5915      1972  TIP3      H1            -20.6392083614        6.7833443859       -3.8819246549  W2        1972            0.0000000000
      5916      1972  TIP3      H2            -19.4303483614        7.1940543859       -4.6954646549  W2        1972            0.0000000000
      5917      1973  TIP3      OH2           -12.1216283614       -0.9065256141        5.8300053451  W2        1973            0.0000000000
      5918      1973  TIP3      H1            -11.4228383614       -0.8326556141        6.4799753451  W2        1973            0.0000000000
      5919      1973  TIP3      H2            -12.5024883614       -1.7710256141        5.9842953451  W2        1973            0.0000000000
      5920      1974  TIP3      OH2           -11.3371383614       -1.2543556141       -3.0727646549  W2        1974            0.0000000000
      5921      1974  TIP3      H1            -11.1173083614       -0.7828156141       -3.8762246549  W2        1974            0.0000000000
      5922      1974  TIP3      H2            -10.7787383614       -0.8600956141       -2.4027046549  W2        1974            0.0000000000
      5923      1975  TIP3      OH2           -13.6685283614       10.8761243859       -4.2100146549  W2        1975            0.0000000000
      5924      1975  TIP3      H1            -14.4849183614       11.3730943859       -4.1575846549  W2        1975            0.0000000000
      5925      1975  TIP3      H2            -13.1388983614       11.3514743859       -4.8501346549  W2        1975            0.0000000000
      5926      1976  TIP3      OH2           -14.1371483614        0.4735243859       -2.2379246549  W2        1976            0.0000000000
      5927      1976  TIP3      H1            -13.3248883614        0.9778443859       -2.1917546549  W2        1976            0.0000000000
      5928      1976  TIP3      H2            -14.3818483614        0.3284943859       -1.3239646549  W2        1976            0.0000000000
      5929      1977  TIP3      OH2           -13.6015083614        1.4597943859        6.9467353451  W2        1977            0.0000000000
      5930      1977  TIP3      H1            -13.4824783614        2.0333343859        7.7037753451  W2        1977            0.0000000000
      5931      1977  TIP3      H2            -12.9460483614        0.7717343859        7.0615153451  W2        1977            0.0000000000
      5932      1978  TIP3      OH2           -13.2534783614       -2.4451756141       -1.2998146549  W2        1978            0.0000000000
      5933      1978  TIP3      H1            -13.6001283614       -1.8281156141       -0.6553846549  W2        1978            0.0000000000
      5934      1978  TIP3      H2            -12.5947883614       -1.9446056141       -1.7812646549  W2        1978            0.0000000000
      5935      1979  TIP3      OH2           -16.3302183614       11.9198443859       -4.2283246549  W2        1979            0.0000000000
      5936      1979  TIP3      H1            -16.1693483614       12.7195943859       -4.7290646549  W2        1979            0.0000000000
      5937      1979  TIP3      H2            -16.5274383614       12.2264443859       -3.3432646549  W2        1979            0.0000000000
      5938      1980  TIP3      OH2           -17.5957783614       -1.3822356141       -4.6125646549  W2        1980            0.0000000000
      5939      1980  TIP3      H1            -17.6792983614       -0.4939256141       -4.2659246549  W2        1980            0.0000000000
      5940      1980  TIP3      H2            -16.7057483614       -1.6475656141       -4.3808846549  W2        1980            0.0000000000
      5941      1981  TIP3      OH2            -7.3969283614       -0.6331756141        7.7817053451  W2        1981            0.0000000000
      5942      1981  TIP3      H1             -8.3133483614       -0.3710056141        7.6940753451  W2        1981            0.0000000000
      5943      1981  TIP3      H2             -7.0614283614       -0.6362756141        6.8852353451  W2        1981            0.0000000000
      5944      1982  TIP3      OH2            -8.7948283614        3.1169243859        1.8774353451  W2        1982            0.0000000000
      5945      1982  TIP3      H1             -9.5923883614        2.7019443859        1.5489353451  W2        1982            0.0000000000
      5946      1982  TIP3      H2             -8.3497183614        2.4262943859        2.3684853451  W2        1982            0.0000000000
      5947      1983  TIP3      OH2           -19.3372483614        9.0449843859       -5.5521146549  W2        1983            0.0000000000
      5948      1983  TIP3      H1            -18.7450983614        9.7444643859       -5.2758746549  W2        1983            0.0000000000
      5949      1983  TIP3      H2            -18.8779483614        8.6119343859       -6.2716546549  W2        1983            0.0000000000
      5950      1984  TIP3      OH2           -21.0213283614        1.7092843859       -6.4361746549  W2        1984            0.0000000000
      5951      1984  TIP3      H1            -21.0660683614        2.6485943859       -6.2574746549  W2        1984            0.0000000000
      5952      1984  TIP3      H2            -21.9090083614        1.4737743859       -6.7059646549  W2        1984            0.0000000000
      5953      1985  TIP3      OH2            -7.7083683614       12.3731743859        3.4997853451  W2        1985            0.0000000000
      5954      1985  TIP3      H1             -7.8639383614       13.0516143859        2.8427153451  W2        1985            0.0000000000
      5955      1985  TIP3      H2             -6.7757283614       12.4451043859        3.7028453451  W2        1985            0.0000000000
      5956      1986  TIP3      OH2           -20.2131283614       -3.5090556141        2.2369253451  W2        1986            0.0000000000
      5957      1986  TIP3      H1            -20.4421483614       -3.4498056141        1.3094253451  W2        1986            0.0000000000
      5958      1986  TIP3      H2            -20.6557883614       -4.3005056141        2.5433353451  W2        1986            0.0000000000
      5959      1987  TIP3      OH2           -21.2827983614       10.4316543859       -1.6024946549  W2        1987            0.0000000000
      5960      1987  TIP3      H1            -22.1149383614       10.9039243859       -1.5753546549  W2        1987            0.0000000000
      5961      1987  TIP3      H2            -20.7369683614       10.9414143859       -2.2011846549  W2        1987            0.0000000000
      5962      1988  TIP3      OH2           -21.9944283614       13.0440243859        9.7273053451  W2        1988            0.0000000000
      5963      1988  TIP3      H1            -21.4542083614       12.8274243859       10.4872253451  W2        1988            0.0000000000
      5964      1988  TIP3      H2            -22.4756283614       12.2386243859        9.5375553451  W2        1988            0.0000000000
      5965      1989  TIP3      OH2           -17.3970883614       11.9634643859       11.3477253451  W2        1989            0.0000000000
      5966      1989  TIP3      H1            -16.6293683614       11.5045443859       11.6886453451  W2        1989            0.0000000000
      5967      1989  TIP3      H2            -17.4184683614       11.7374443859       10.4178453451  W2        1989            0.0000000000
      5968      1990  TIP3      OH2           -13.3051283614       11.4715243859       -7.2770946549  W2        1990            0.0000000000
      5969      1990  TIP3      H1            -13.9490283614       10.8403843859       -6.9557246549  W2        1990            0.0000000000
      5970      1990  TIP3      H2            -12.5432983614       10.9403243859       -7.5087446549  W2        1990            0.0000000000
      5971      1991  TIP3      OH2           -10.8202183614       10.3435743859       10.0768753451  W2        1991            0.0000000000
      5972      1991  TIP3      H1            -11.1712683614        9.4868743859       10.3199153451  W2        1991            0.0000000000
      5973      1991  TIP3      H2            -10.0938983614       10.4862443859       10.6837753451  W2        1991            0.0000000000
      5974      1992  TIP3      OH2            -8.7008383614       11.2885143859       -7.0432946549  W2        1992            0.0000000000
      5975      1992  TIP3      H1             -8.4177983614       10.4940343859       -6.5906046549  W2        1992            0.0000000000
      5976      1992  TIP3      H2             -7.9610483614       11.5216143859       -7.6041846549  W2        1992            0.0000000000
      5977      1993  TIP3      OH2           -22.0874783614        6.8544343859       10.6817353451  W2        1993            0.0000000000
      5978      1993  TIP3      H1            -21.9434283614        5.9525043859       10.3954053451  W2        1993            0.0000000000
      5979      1993  TIP3      H2            -22.8597383614        7.1406443859       10.1939653451  W2        1993            0.0000000000
      5980      1994  TIP3      OH2           -17.7461083614        7.1980043859       -7.1858046549  W2        1994            0.0000000000
      5981      1994  TIP3      H1            -17.6816983614        6.4039643859       -6.6551646549  W2        1994            0.0000000000
      5982      1994  TIP3      H2            -17.0931883614        7.0792843859       -7.8756046549  W2        1994            0.0000000000
      5983      1995  TIP3      OH2           -15.4318683614        6.8242443859       10.1143753451  W2        1995            0.0000000000
      5984      1995  TIP3      H1            -15.7604883614        7.0950543859        9.2571153451  W2        1995            0.0000000000
      5985      1995  TIP3      H2            -15.2800483614        5.8832243859       10.0268753451  W2        1995            0.0000000000
      5986      1996  TIP3      OH2           -12.3937683614        8.2451743859       -7.4500046549  W2        1996            0.0000000000
      5987      1996  TIP3      H1            -12.6623583614        8.4253843859       -6.5491146549  W2        1996            0.0000000000
      5988      1996  TIP3      H2            -12.6002083614        7.3197943859       -7.5814246549  W2        1996            0.0000000000
      5989      1997  TIP3      OH2            -9.6973483614        6.7399743859        7.4976053451  W2        1997            0.0000000000
      5990      1997  TIP3      H1             -8.9518683614        7.3283443859        7.3780053451  W2        1997            0.0000000000
      5991      1997  TIP3      H2            -10.4546683614        7.3219443859        7.5609153451  W2        1997            0.0000000000
      5992      1998  TIP3      OH2           -21.2548283614        4.0547643859       10.1016653451  W2        1998            0.0000000000
      5993      1998  TIP3      H1            -20.8467083614        3.1974243859        9.9807253451  W2        1998            0.0000000000
      5994      1998  TIP3      H2            -21.5150683614        4.0688943859       11.0226953451  W2        1998            0.0000000000
      5995      1999  TIP3      OH2           -16.5967283614        5.1706243859       -4.8800046549  W2        1999            0.0000000000
      5996      1999  TIP3      H1            -17.0565283614        4.6864543859       -4.1941546549  W2        1999            0.0000000000
      5997      1999  TIP3      H2            -16.3418583614        4.5021643859       -5.5159546549  W2        1999            0.0000000000
      5998      2000  TIP3      OH2           -17.3077983614        3.0633343859        7.4759553451  W2        2000            0.0000000000
      5999      2000  TIP3      H1            -17.9261883614        3.7379943859        7.7564253451  W2        2000            0.0000000000
      6000      2000  TIP3      H2            -16.9636783614        3.3847243859        6.6425753451  W2        2000            0.0000000000
      6001      2001  TIP3      OH2           -15.5256883614        3.4138043859       -6.6176846549  W2        2001            0.0000000000
      6002      2001  TIP3      H1            -15.7061883614        3.2589243859       -7.5448546549  W2        2001            0.0000000000
      6003      2001  TIP3      H2            -14.5756383614        3.5216743859       -6.5728946549  W2        2001            0.0000000000
      6004      2002  TIP3      OH2           -12.2879783614        5.5348643859       10.7534353451  W2        2002            0.0000000000
      6005      2002  TIP3      H1            -11.3348583614        5.6187743859       10.7260353451  W2        2002            0.0000000000
      6006      2002  TIP3      H2            -12.4485183614        4.8230443859       11.3729253451  W2        2002            0.0000000000
      6007      2003  TIP3      OH2            -6.1358583614        5.7682243859       -7.1718746549  W2        2003            0.0000000000
      6008      2003  TIP3      H1             -6.4093783614        5.3437743859       -7.9850446549  W2        2003            0.0000000000
      6009      2003  TIP3      H2             -6.0964483614        6.6996743859       -7.3888346549  W2        2003            0.0000000000
      6010      2004  TIP3      OH2           -16.9684283614        0.4184143859        8.5582653451  W2        2004            0.0000000000
      6011      2004  TIP3      H1            -16.8183383614       -0.3104556141        7.9562353451  W2        2004            0.0000000000
      6012      2004  TIP3      H2            -16.9661883614        1.1955843859        7.9994853451  W2        2004            0.0000000000
      6013      2005  TIP3      OH2           -16.5558583614       -1.2120056141        6.0510053451  W2        2005            0.0000000000
      6014      2005  TIP3      H1            -16.0201083614       -0.7603356141        5.3989353451  W2        2005            0.0000000000
      6015      2005  TIP3      H2            -17.4078983614       -1.3200256141        5.6284153451  W2        2005            0.0000000000
      6016      2006  TIP3      OH2           -14.9740183614        4.2276143859        6.2905253451  W2        2006            0.0000000000
      6017      2006  TIP3      H1            -14.2235383614        4.0713643859        5.7173053451  W2        2006            0.0000000000
      6018      2006  TIP3      H2            -15.3131883614        5.0792743859        6.0150753451  W2        2006            0.0000000000
      6019      2007  TIP3      OH2           -10.5583983614        2.0427943859       11.3190553451  W2        2007            0.0000000000
      6020      2007  TIP3      H1            -10.3662683614        1.1117343859       11.2075053451  W2        2007            0.0000000000
      6021      2007  TIP3      H2             -9.7007683614        2.4677443859       11.3085953451  W2        2007            0.0000000000
      6022      2008  TIP3      OH2            -9.2416783614        4.8313143859        9.3963253451  W2        2008            0.0000000000
      6023      2008  TIP3      H1             -9.5231783614        5.5407743859        8.8187053451  W2        2008            0.0000000000
      6024      2008  TIP3      H2             -8.2992483614        4.7586143859        9.2454453451  W2        2008            0.0000000000
      6025      2009  TIP3      OH2           -18.4897983614        1.6167643859       10.4698253451  W2        2009            0.0000000000
      6026      2009  TIP3      H1            -19.2568983614        1.0842443859       10.2595853451  W2        2009            0.0000000000
      6027      2009  TIP3      H2            -17.8108983614        1.3068043859        9.8704553451  W2        2009            0.0000000000
      6028      2010  TIP3      OH2           -15.7503083614       -3.7554356141        6.4823653451  W2        2010            0.0000000000
      6029      2010  TIP3      H1            -15.8483483614       -2.8091156141        6.3769853451  W2        2010            0.0000000000
      6030      2010  TIP3      H2            -16.4926883614       -4.1280556141        6.0067153451  W2        2010            0.0000000000
      6031      2011  TIP3      OH2           -14.4862583614        0.5661043859       10.0462053451  W2        2011            0.0000000000
      6032      2011  TIP3      H1            -14.7217183614        0.3467743859       10.9476953451  W2        2011            0.0000000000
      6033      2011  TIP3      H2            -15.2695683614        0.3592243859        9.5364553451  W2        2011            0.0000000000
      6034      2012  TIP3      OH2           -11.7705983614       -0.3065456141        9.1215553451  W2        2012            0.0000000000
      6035      2012  TIP3      H1            -12.7180583614       -0.2745756141        9.2538853451  W2        2012            0.0000000000
      6036      2012  TIP3      H2            -11.4579283614       -0.9318356141        9.7753753451  W2        2012            0.0000000000
      6037      2013  TIP3      OH2           -10.1364483614       -1.6724356141       11.1267453451  W2        2013            0.0000000000
      6038      2013  TIP3      H1            -10.2332683614       -2.6247056141       11.1209353451  W2        2013            0.0000000000
      6039      2013  TIP3      H2            -10.4581383614       -1.4037556141       11.9872953451  W2        2013            0.0000000000
      6040      2014  TIP3      OH2           -20.3095183614       -0.4628556141       10.1742953451  W2        2014            0.0000000000
      6041      2014  TIP3      H1            -20.0977783614       -1.1692456141        9.5640453451  W2        2014            0.0000000000
      6042      2014  TIP3      H2            -20.4207683614       -0.9002556141       11.0184153451  W2        2014            0.0000000000
      6043      2015  TIP3      OH2           -15.5284983614       -4.4616956141        9.1536453451  W2        2015            0.0000000000
      6044      2015  TIP3      H1            -14.8166583614       -5.1014756141        9.1395553451  W2        2015            0.0000000000
      6045      2015  TIP3      H2            -15.6294583614       -4.1948656141        8.2399553451  W2        2015            0.0000000000
      6046      2016  TIP3      OH2           -15.1747483614       -2.7788556141       11.2072753451  W2        2016            0.0000000000
      6047      2016  TIP3      H1            -15.3065283614       -3.2544756141       10.3871253451  W2        2016            0.0000000000
      6048      2016  TIP3      H2            -15.7740083614       -2.0344956141       11.1519853451  W2        2016            0.0000000000
      6049      2017  TIP3      OH2           -15.6285183614       14.1041743859       -5.6163246549  W2        2017            0.0000000000
      6050      2017  TIP3      H1            -14.6954483614       14.2620443859       -5.4724846549  W2        2017            0.0000000000
      6051      2017  TIP3      H2            -15.8926383614       14.7794743859       -6.2411746549  W2        2017            0.0000000000
      6052      2018  TIP3      OH2           -22.0600283614        8.7405543859       -6.1335146549  W2        2018            0.0000000000
      6053      2018  TIP3      H1            -21.1461083614        8.8194443859       -5.8601246549  W2        2018            0.0000000000
      6054      2018  TIP3      H2            -22.0527183614        8.0535143859       -6.7999546549  W2        2018            0.0000000000
      6055      2019  TIP3      OH2           -23.4109683614       14.1334043859       -1.0561246549  W2        2019            0.0000000000
      6056      2019  TIP3      H1            -24.0582583614       13.6715743859       -1.5890046549  W2        2019            0.0000000000
      6057      2019  TIP3      H2            -23.0565083614       13.4617343859       -0.4735046549  W2        2019            0.0000000000
      6058      2020  TIP3      OH2           -22.5410483614       12.2141043859        0.7484953451  W2        2020            0.0000000000
      6059      2020  TIP3      H1            -22.8753683614       11.3338343859        0.9205153451  W2        2020            0.0000000000
      6060      2020  TIP3      H2            -22.3188083614       12.5596043859        1.6130553451  W2        2020            0.0000000000
      6061      2021  TIP3      OH2            -4.9925683614       13.0237443859        3.7289753451  W2        2021            0.0000000000
      6062      2021  TIP3      H1             -5.0138983614       13.2085843859        4.6679153451  W2        2021            0.0000000000
      6063      2021  TIP3      H2             -4.3019483614       13.5921443859        3.3881153451  W2        2021            0.0000000000
      6064      2022  TIP3      OH2            -5.4292783614       12.5908543859        6.6508853451  W2        2022            0.0000000000
      6065      2022  TIP3      H1             -5.9164083614       11.8552643859        6.2796253451  W2        2022            0.0000000000
      6066      2022  TIP3      H2             -4.8800083614       12.1972443859        7.3288253451  W2        2022            0.0000000000
      6067      2023  TIP3      OH2            -6.9785483614        8.3806643859       11.2889153451  W2        2023            0.0000000000
      6068      2023  TIP3      H1             -7.8444383614        8.2756343859       11.6831453451  W2        2023            0.0000000000
      6069      2023  TIP3      H2             -6.6019583614        9.1389943859       11.7353853451  W2        2023            0.0000000000
      6070      2024  TIP3      OH2            -5.6775783614        6.6370343859       -3.1968346549  W2        2024            0.0000000000
      6071      2024  TIP3      H1             -4.8274383614        7.0581243859       -3.0696746549  W2        2024            0.0000000000
      6072      2024  TIP3      H2             -5.6720683614        5.8970443859       -2.5896946549  W2        2024            0.0000000000
      6073      2025  TIP3      OH2            -5.2830183614        4.6907743859       -1.3732646549  W2        2025            0.0000000000
      6074      2025  TIP3      H1             -6.0095583614        4.2110343859       -0.9755046549  W2        2025            0.0000000000
      6075      2025  TIP3      H2             -4.7016883614        4.8962443859       -0.6411046549  W2        2025            0.0000000000
      6076      2026  TIP3      OH2            -5.5238983614        7.4755243859        3.5744953451  W2        2026            0.0000000000
      6077      2026  TIP3      H1             -4.6904783614        7.0975243859        3.2938553451  W2        2026            0.0000000000
      6078      2026  TIP3      H2             -5.4118683614        8.4186443859        3.4554053451  W2        2026            0.0000000000
      6079      2027  TIP3      OH2            -7.0376683614       10.3532743859        5.8813353451  W2        2027            0.0000000000
      6080      2027  TIP3      H1             -7.6851383614       10.6784243859        6.5068553451  W2        2027            0.0000000000
      6081      2027  TIP3      H2             -7.5552683614        9.9130443859        5.2071653451  W2        2027            0.0000000000
      6082      2028  TIP3      OH2            -5.0147083614        4.5916243859       -4.9821346549  W2        2028            0.0000000000
      6083      2028  TIP3      H1             -5.5365983614        4.9480343859       -5.7010446549  W2        2028            0.0000000000
      6084      2028  TIP3      H2             -5.0477883614        5.2664043859       -4.3040446549  W2        2028            0.0000000000
      6085      2029  TIP3      OH2            -6.6658083614        1.8311843859       -6.4314246549  W2        2029            0.0000000000
      6086      2029  TIP3      H1             -6.5693683614        2.4978843859       -7.1114546549  W2        2029            0.0000000000
      6087      2029  TIP3      H2             -6.8058483614        1.0158143859       -6.9128746549  W2        2029            0.0000000000
      6088      2030  TIP3      OH2            -7.4963383614        3.2114243859       -0.8103946549  W2        2030            0.0000000000
      6089      2030  TIP3      H1             -7.6464583614        2.2662843859       -0.8306146549  W2        2030            0.0000000000
      6090      2030  TIP3      H2             -7.8498883614        3.4925643859        0.0335153451  W2        2030            0.0000000000
      6091      2031  TIP3      OH2           -22.4610983614        5.2896443859        3.1999853451  W2        2031            0.0000000000
      6092      2031  TIP3      H1            -22.2768083614        5.2078143859        2.2642753451  W2        2031            0.0000000000
      6093      2031  TIP3      H2            -21.6118083614        5.1653443859        3.6236253451  W2        2031            0.0000000000
      6094      2032  TIP3      OH2            -6.6400483614        5.1817543859        8.8284353451  W2        2032            0.0000000000
      6095      2032  TIP3      H1             -6.0573183614        4.4469843859        9.0201553451  W2        2032            0.0000000000
      6096      2032  TIP3      H2             -6.0761183614        5.9537843859        8.8750153451  W2        2032            0.0000000000
      6097      2033  TIP3      OH2            -5.1433383614        3.0843343859        9.5129753451  W2        2033            0.0000000000
      6098      2033  TIP3      H1             -6.0066683614        2.7055443859        9.3474453451  W2        2033            0.0000000000
      6099      2033  TIP3      H2             -4.5389683614        2.3458143859        9.4385553451  W2        2033            0.0000000000
      6100      2034  TIP3      OH2            -7.4184283614       -0.7608356141       -7.3138746549  W2        2034            0.0000000000
      6101      2034  TIP3      H1             -6.8078483614       -1.1321556141       -6.6770546549  W2        2034            0.0000000000
      6102      2034  TIP3      H2             -8.2552783614       -1.1821456141       -7.1178746549  W2        2034            0.0000000000
      6103      2035  TIP3      OH2            -7.7858583614        0.7940043859       -2.3478846549  W2        2035            0.0000000000
      6104      2035  TIP3      H1             -7.5061483614       -0.1129556141       -2.2237146549  W2        2035            0.0000000000
      6105      2035  TIP3      H2             -7.0266883614        1.2281543859       -2.7369646549  W2        2035            0.0000000000
      6106      2036  TIP3      OH2            -7.1740283614        1.3757443859        3.0880053451  W2        2036            0.0000000000
      6107      2036  TIP3      H1             -6.2412283614        1.5877343859        3.0536053451  W2        2036            0.0000000000
      6108      2036  TIP3      H2             -7.4092783614        1.4769543859        4.0103053451  W2        2036            0.0000000000
      6109      2037  TIP3      OH2            -7.1448383614        2.1122743859        5.8639453451  W2        2037            0.0000000000
      6110      2037  TIP3      H1             -7.9877083614        2.3803143859        6.2299253451  W2        2037            0.0000000000
      6111      2037  TIP3      H2             -6.7024083614        2.9344643859        5.6530553451  W2        2037            0.0000000000
      6112      2038  TIP3      OH2           -22.8636183614        0.5601443859        9.3408653451  W2        2038            0.0000000000
      6113      2038  TIP3      H1            -21.9441283614        0.4379743859        9.5771753451  W2        2038            0.0000000000
      6114      2038  TIP3      H2            -23.3131683614       -0.1898856141        9.7302153451  W2        2038            0.0000000000
      6115      2039  TIP3      OH2            -4.8616783614       -3.9077056141       11.2174453451  W2        2039            0.0000000000
      6116      2039  TIP3      H1             -4.5119783614       -4.5613556141       10.6119153451  W2        2039            0.0000000000
      6117      2039  TIP3      H2             -4.7147283614       -3.0702956141       10.7777053451  W2        2039            0.0000000000
      6118      2040  TIP3      OH2            -7.1723783614       -1.9430656141       -2.2996846549  W2        2040            0.0000000000
      6119      2040  TIP3      H1             -6.9898783614       -2.3919156141       -1.4741846549  W2        2040            0.0000000000
      6120      2040  TIP3      H2             -7.7720883614       -2.5276256141       -2.7632246549  W2        2040            0.0000000000
      6121      2041  TIP3      OH2           -21.6423683614       -1.1276956141        2.2321553451  W2        2041            0.0000000000
      6122      2041  TIP3      H1            -21.1972083614       -1.9194456141        2.5341253451  W2        2041            0.0000000000
      6123      2041  TIP3      H2            -21.1760683614       -0.4111756141        2.6627153451  W2        2041            0.0000000000
      6124      2042  TIP3      OH2           -23.3383383614        1.8716043859        3.3011753451  W2        2042            0.0000000000
      6125      2042  TIP3      H1            -22.8463583614        1.6506543859        2.5103753451  W2        2042            0.0000000000
      6126      2042  TIP3      H2            -22.9762483614        2.7119443859        3.5821253451  W2        2042            0.0000000000
      6127      2043  TIP3      OH2            -5.3419583614       -1.7982456141        9.5665753451  W2        2043            0.0000000000
      6128      2043  TIP3      H1             -6.2593883614       -1.5275356141        9.5309253451  W2        2043            0.0000000000
      6129      2043  TIP3      H2             -5.2190183614       -2.3334056141        8.7825453451  W2        2043            0.0000000000
      6130      2044  TIP3      OH2            -5.3057583614       -1.8752556141       -5.7716546549  W2        2044            0.0000000000
      6131      2044  TIP3      H1             -4.8934983614       -2.5966856141       -6.2468546549  W2        2044            0.0000000000
      6132      2044  TIP3      H2             -4.6241083614       -1.2057956141       -5.7132246549  W2        2044            0.0000000000
      6133      2045  TIP3      OH2           -23.0246883614       -1.8704856141       -2.6445846549  W2        2045            0.0000000000
      6134      2045  TIP3      H1            -23.9498483614       -1.6618256141       -2.7740346549  W2        2045            0.0000000000
      6135      2045  TIP3      H2            -22.5706983614       -1.3864056141       -3.3343546549  W2        2045            0.0000000000
      6136      2046  TIP3      OH2            -8.2539683614       13.1136843859       -0.6988446549  W2        2046            0.0000000000
      6137      2046  TIP3      H1             -7.6016783614       12.7658943859       -1.3069346549  W2        2046            0.0000000000
      6138      2046  TIP3      H2             -7.7435883614       13.6020043859       -0.0528746549  W2        2046            0.0000000000
      6139      2047  TIP3      OH2           -23.0611483614       -3.1325856141        5.6996653451  W2        2047            0.0000000000
      6140      2047  TIP3      H1            -23.7260983614       -3.3785556141        6.3427553451  W2        2047            0.0000000000
      6141      2047  TIP3      H2            -23.5040183614       -2.5105456141        5.1224653451  W2        2047            0.0000000000
      6142      2048  TIP3      OH2           -20.8692183614       10.0428243859        9.8442453451  W2        2048            0.0000000000
      6143      2048  TIP3      H1            -21.6899683614       10.2174743859        9.3837153451  W2        2048            0.0000000000
      6144      2048  TIP3      H2            -21.1214383614        9.9692943859       10.7646853451  W2        2048            0.0000000000
      6145      2049  TIP3      OH2           -17.9149283614       11.0169443859        6.1026453451  W2        2049            0.0000000000
      6146      2049  TIP3      H1            -18.3398183614       11.8267943859        5.8201053451  W2        2049            0.0000000000
      6147      2049  TIP3      H2            -17.0106483614       11.1023543859        5.8006253451  W2        2049            0.0000000000
      6148      2050  TIP3      OH2           -13.6037883614       12.4159443859        9.0620153451  W2        2050            0.0000000000
      6149      2050  TIP3      H1            -13.4190383614       12.0825543859        9.9400453451  W2        2050            0.0000000000
      6150      2050  TIP3      H2            -12.7573383614       12.7258043859        8.7399353451  W2        2050            0.0000000000
      6151      2051  TIP3      OH2           -11.2587483614       13.7018343859        8.3061553451  W2        2051            0.0000000000
      6152      2051  TIP3      H1            -10.5818583614       13.0690643859        8.0660753451  W2        2051            0.0000000000
      6153      2051  TIP3      H2            -10.9368683614       14.1028843859        9.1134853451  W2        2051            0.0000000000
      6154      2052  TIP3      OH2            -6.3413683614       -3.7086156141        7.3856553451  W2        2052            0.0000000000
      6155      2052  TIP3      H1             -7.1540183614       -3.3835856141        6.9981253451  W2        2052            0.0000000000
      6156      2052  TIP3      H2             -6.1085183614       -4.4687656141        6.8525653451  W2        2052            0.0000000000
      6157      2053  TIP3      OH2           -20.5132583614       14.2733343859        6.1501753451  W2        2053            0.0000000000
      6158      2053  TIP3      H1            -21.2336183614       14.7134343859        5.6989453451  W2        2053            0.0000000000
      6159      2053  TIP3      H2            -20.8788583614       14.0228043859        6.9985753451  W2        2053            0.0000000000
      6160      2054  TIP3      OH2           -18.0459983614       13.8737243859        5.1798953451  W2        2054            0.0000000000
      6161      2054  TIP3      H1            -18.9107783614       13.9455743859        5.5839053451  W2        2054            0.0000000000
      6162      2054  TIP3      H2            -18.1010983614       14.4204543859        4.3961453451  W2        2054            0.0000000000
      6163      2055  TIP3      OH2           -13.3354383614       13.7616143859        4.3554953451  W2        2055            0.0000000000
      6164      2055  TIP3      H1            -13.7920383614       14.2905843859        3.7013353451  W2        2055            0.0000000000
      6165      2055  TIP3      H2            -13.1726383614       14.3647543859        5.0807253451  W2        2055            0.0000000000
      6166      2056  TIP3      OH2           -11.0078083614       12.6395743859        5.3005253451  W2        2056            0.0000000000
      6167      2056  TIP3      H1            -11.9124383614       12.8045943859        5.0347353451  W2        2056            0.0000000000
      6168      2056  TIP3      H2            -10.5789483614       13.4927943859        5.2348653451  W2        2056            0.0000000000
      6169      2057  TIP3      OH2            -8.4036183614       14.2094843859        5.5953053451  W2        2057            0.0000000000
      6170      2057  TIP3      H1             -8.5854183614       15.1253743859        5.3847953451  W2        2057            0.0000000000
      6171      2057  TIP3      H2             -8.2268383614       13.7991943859        4.7487653451  W2        2057            0.0000000000
      6172      2058  TIP3      OH2           -21.0984483614       12.8965843859        3.0603553451  W2        2058            0.0000000000
      6173      2058  TIP3      H1            -21.1168483614       12.4710943859        3.9175853451  W2        2058            0.0000000000
      6174      2058  TIP3      H2            -20.2936583614       12.5780843859        2.6515753451  W2        2058            0.0000000000
      6175      2059  TIP3      OH2           -18.9571383614       11.6064543859        1.7153453451  W2        2059            0.0000000000
      6176      2059  TIP3      H1            -19.1760683614       10.6901943859        1.8849453451  W2        2059            0.0000000000
      6177      2059  TIP3      H2            -18.1329183614       11.7464943859        2.1814853451  W2        2059            0.0000000000
      6178      2060  TIP3      OH2           -16.4198883614       12.0763843859        2.5641453451  W2        2060            0.0000000000
      6179      2060  TIP3      H1            -16.2073183614       11.1882843859        2.2772353451  W2        2060            0.0000000000
      6180      2060  TIP3      H2            -16.3553783614       12.0421543859        3.5185453451  W2        2060            0.0000000000
      6181      2061  TIP3      OH2           -12.9115183614       -2.2595556141        1.7084753451  W2        2061            0.0000000000
      6182      2061  TIP3      H1            -13.5858383614       -2.8889956141        1.9640553451  W2        2061            0.0000000000
      6183      2061  TIP3      H2            -12.3475983614       -2.7436656141        1.1052653451  W2        2061            0.0000000000
      6184      2062  TIP3      OH2            -7.7687983614       -4.1521556141        1.8211853451  W2        2062            0.0000000000
      6185      2062  TIP3      H1             -7.1650383614       -3.6046156141        1.3192853451  W2        2062            0.0000000000
      6186      2062  TIP3      H2             -8.6385983614       -3.8331156141        1.5805953451  W2        2062            0.0000000000
      6187      2063  TIP3      OH2            -6.0417583614       -3.0132856141        0.1542753451  W2        2063            0.0000000000
      6188      2063  TIP3      H1             -5.4300083614       -3.5277156141       -0.3723646549  W2        2063            0.0000000000
      6189      2063  TIP3      H2             -5.6594183614       -2.1360756141        0.1777153451  W2        2063            0.0000000000
      6190      2064  TIP3      OH2           -20.5847683614       -3.6255256141       -0.4695346549  W2        2064            0.0000000000
      6191      2064  TIP3      H1            -21.3617883614       -3.8600356141       -0.9769446549  W2        2064            0.0000000000
      6192      2064  TIP3      H2            -20.0544083614       -4.4223156141       -0.4607346549  W2        2064            0.0000000000
      6193      2065  TIP3      OH2           -21.7484283614       -3.8277156141       -4.6659246549  W2        2065            0.0000000000
      6194      2065  TIP3      H1            -21.3093583614       -3.2166656141       -5.2575746549  W2        2065            0.0000000000
      6195      2065  TIP3      H2            -22.3821883614       -3.2893056141       -4.1919246549  W2        2065            0.0000000000
      6196      2066  TIP3      OH2           -16.0055083614       -3.6988156141       -0.6562246549  W2        2066            0.0000000000
      6197      2066  TIP3      H1            -15.1311683614       -3.3103856141       -0.6857946549  W2        2066            0.0000000000
      6198      2066  TIP3      H2            -16.1414283614       -3.9140356141        0.2664953451  W2        2066            0.0000000000
      6199      2067  TIP3      OH2           -10.4486683614       -3.6688356141        0.9929453451  W2        2067            0.0000000000
      6200      2067  TIP3      H1            -10.3725083614       -3.5736756141        0.0435453451  W2        2067            0.0000000000
      6201      2067  TIP3      H2            -10.7237483614       -4.5765456141        1.1218553451  W2        2067            0.0000000000
      6202      2068  TIP3      OH2            -9.0954083614       -3.6430556141       -3.3145546549  W2        2068            0.0000000000
      6203      2068  TIP3      H1             -9.7982983614       -3.0281356141       -3.5244146549  W2        2068            0.0000000000
      6204      2068  TIP3      H2             -9.5402683614       -4.4803856141       -3.1834646549  W2        2068            0.0000000000
      6205      2069  TIP3      OH2           -21.8474783614       12.1205043859       -3.7684146549  W2        2069            0.0000000000
      6206      2069  TIP3      H1            -22.5324883614       12.0823943859       -4.4359046549  W2        2069            0.0000000000
      6207      2069  TIP3      H2            -21.8437583614       13.0332643859       -3.4802046549  W2        2069            0.0000000000
      6208      2070  TIP3      OH2           -19.8875183614       -1.9115656141       -6.2235146549  W2        2070            0.0000000000
      6209      2070  TIP3      H1            -19.3961783614       -2.5413256141       -6.7509646549  W2        2070            0.0000000000
      6210      2070  TIP3      H2            -19.2638883614       -1.6156256141       -5.5603946549  W2        2070            0.0000000000
      6211      2071  TIP3      OH2           -14.8615083614       -1.6184156141       -3.7664646549  W2        2071            0.0000000000
      6212      2071  TIP3      H1            -14.6833783614       -2.2650956141       -3.0836046549  W2        2071            0.0000000000
      6213      2071  TIP3      H2            -14.9148883614       -0.7846456141       -3.2993546549  W2        2071            0.0000000000
      6214      2072  TIP3      OH2           -12.9831283614       13.3299943859       -5.3707946549  W2        2072            0.0000000000
      6215      2072  TIP3      H1            -12.1171083614       13.6967343859       -5.5489746549  W2        2072            0.0000000000
      6216      2072  TIP3      H2            -13.2298483614       12.8907943859       -6.1847146549  W2        2072            0.0000000000
      6217      2073  TIP3      OH2            -6.2741683614       12.8930243859       -2.6916846549  W2        2073            0.0000000000
      6218      2073  TIP3      H1             -6.4684583614       12.1452343859       -3.2567246549  W2        2073            0.0000000000
      6219      2073  TIP3      H2             -6.3131583614       13.6510343859       -3.2748946549  W2        2073            0.0000000000
      6220      2074  TIP3      OH2           -20.6269683614       -3.1113356141        9.0480853451  W2        2074            0.0000000000
      6221      2074  TIP3      H1            -20.9931483614       -3.8770756141        9.4905553451  W2        2074            0.0000000000
      6222      2074  TIP3      H2            -19.7141183614       -3.0823156141        9.3345953451  W2        2074            0.0000000000
      6223      2075  TIP3      OH2           -18.6538883614       -3.7608956141       10.5837953451  W2        2075            0.0000000000
      6224      2075  TIP3      H1            -17.7555283614       -4.0348756141       10.3991353451  W2        2075            0.0000000000
      6225      2075  TIP3      H2            -19.0405783614       -4.5032956141       11.0480553451  W2        2075            0.0000000000
      6226      2076  TIP3      OH2           -20.0293583614       13.0405843859       -6.7432046549  W2        2076            0.0000000000
      6227      2076  TIP3      H1            -20.2968983614       13.3268743859       -5.8698946549  W2        2076            0.0000000000
      6228      2076  TIP3      H2            -19.2580983614       12.4945043859       -6.5909546549  W2        2076            0.0000000000
      6229      2077  TIP3      OH2           -10.2326583614       -4.4283656141       10.7660753451  W2        2077            0.0000000000
      6230      2077  TIP3      H1            -10.1559383614       -4.8542956141       11.6198453451  W2        2077            0.0000000000
      6231      2077  TIP3      H2             -9.3389983614       -4.4148956141       10.4234253451  W2        2077            0.0000000000
      6232      2078  TIP3      OH2            -7.0565483614       11.6442643859        9.4584953451  W2        2078            0.0000000000
      6233      2078  TIP3      H1             -7.8383583614       11.4580643859        8.9385553451  W2        2078            0.0000000000
      6234      2078  TIP3      H2             -7.1285583614       12.5736943859        9.6757453451  W2        2078            0.0000000000
      6235      2079  TIP3      OH2             7.3494916386        5.5307043859       -0.5107846549  W2        2079            0.0000000000
      6236      2079  TIP3      H1              7.4386016386        6.4745243859       -0.6430746549  W2        2079            0.0000000000
      6237      2079  TIP3      H2              6.7112516386        5.2553443859       -1.1688446549  W2        2079            0.0000000000
      6238      2080  TIP3      OH2             6.2826216386        4.7857743859        2.9080353451  W2        2080            0.0000000000
      6239      2080  TIP3      H1              6.2443716386        4.1394043859        3.6129953451  W2        2080            0.0000000000
      6240      2080  TIP3      H2              5.9602716386        4.3192143859        2.1369053451  W2        2080            0.0000000000
      6241      2081  TIP3      OH2            -1.3488783614        4.3999843859        4.5010253451  W2        2081            0.0000000000
      6242      2081  TIP3      H1             -1.3076683614        3.7743143859        5.2242653451  W2        2081            0.0000000000
      6243      2081  TIP3      H2             -0.6461083614        5.0238443859        4.6830653451  W2        2081            0.0000000000
      6244      2082  TIP3      OH2             9.9886416386        7.7248143859        1.2095453451  W2        2082            0.0000000000
      6245      2082  TIP3      H1              9.5479116386        7.0044143859        1.6601053451  W2        2082            0.0000000000
      6246      2082  TIP3      H2              9.9756116386        8.4455343859        1.8393153451  W2        2082            0.0000000000
      6247      2083  TIP3      OH2            -0.4255683614        8.8498743859        3.0359353451  W2        2083            0.0000000000
      6248      2083  TIP3      H1             -0.7950483614        8.0479243859        2.6663653451  W2        2083            0.0000000000
      6249      2083  TIP3      H2              0.5155416386        8.6813643859        3.0822753451  W2        2083            0.0000000000
      6250      2084  TIP3      OH2            -3.8155183614        2.5101343859       -1.5711846549  W2        2084            0.0000000000
      6251      2084  TIP3      H1             -4.2631783614        3.3560043859       -1.5895346549  W2        2084            0.0000000000
      6252      2084  TIP3      H2             -4.3763983614        1.9305543859       -2.0866746549  W2        2084            0.0000000000
      6253      2085  TIP3      OH2            -3.1049083614        4.6720943859        0.5546153451  W2        2085            0.0000000000
      6254      2085  TIP3      H1             -2.8915583614        3.9022543859        1.0819153451  W2        2085            0.0000000000
      6255      2085  TIP3      H2             -2.3671483614        4.7617643859       -0.0486246549  W2        2085            0.0000000000
      6256      2086  TIP3      OH2             7.1001916386       12.8289843859        1.4215853451  W2        2086            0.0000000000
      6257      2086  TIP3      H1              7.7198316386       12.1524543859        1.1485053451  W2        2086            0.0000000000
      6258      2086  TIP3      H2              6.8919316386       12.6110643859        2.3300753451  W2        2086            0.0000000000
      6259      2087  TIP3      OH2             4.6720616386        7.2179143859        3.3141353451  W2        2087            0.0000000000
      6260      2087  TIP3      H1              4.9758516386        6.5320543859        2.7195453451  W2        2087            0.0000000000
      6261      2087  TIP3      H2              5.3934616386        7.3367843859        3.9319353451  W2        2087            0.0000000000
      6262      2088  TIP3      OH2            13.3350416386       -1.1805556141        4.1747553451  W2        2088            0.0000000000
      6263      2088  TIP3      H1             13.3842616386       -0.5704356141        4.9106653451  W2        2088            0.0000000000
      6264      2088  TIP3      H2             13.7605516386       -0.7194656141        3.4518653451  W2        2088            0.0000000000
      6265      2089  TIP3      OH2             7.8127616386        1.6121543859        3.6416153451  W2        2089            0.0000000000
      6266      2089  TIP3      H1              7.9553516386        0.6658543859        3.6617753451  W2        2089            0.0000000000
      6267      2089  TIP3      H2              7.7066616386        1.8191343859        2.7131053451  W2        2089            0.0000000000
      6268      2090  TIP3      OH2             0.9675916386       -0.2862056141        0.9140953451  W2        2090            0.0000000000
      6269      2090  TIP3      H1              1.0107016386        0.5736443859        0.4957253451  W2        2090            0.0000000000
      6270      2090  TIP3      H2              0.5100016386       -0.8387356141        0.2804153451  W2        2090            0.0000000000
      6271      2091  TIP3      OH2             8.6898616386       -0.1556456141       -0.6850746549  W2        2091            0.0000000000
      6272      2091  TIP3      H1              9.3362916386       -0.4843256141       -0.0603146549  W2        2091            0.0000000000
      6273      2091  TIP3      H2              9.1998016386        0.3622543859       -1.3079346549  W2        2091            0.0000000000
      6274      2092  TIP3      OH2            -2.4122583614        2.1103743859        1.6762353451  W2        2092            0.0000000000
      6275      2092  TIP3      H1             -1.7585983614        1.5605443859        2.1082453451  W2        2092            0.0000000000
      6276      2092  TIP3      H2             -2.3883283614        1.8362743859        0.7594353451  W2        2092            0.0000000000
      6277      2093  TIP3      OH2             2.7441916386        3.6605043859        0.8913853451  W2        2093            0.0000000000
      6278      2093  TIP3      H1              3.3602916386        3.1340443859        1.4007853451  W2        2093            0.0000000000
      6279      2093  TIP3      H2              2.1580716386        3.0203743859        0.4877453451  W2        2093            0.0000000000
      6280      2094  TIP3      OH2            13.7265016386        0.2973643859        6.4107353451  W2        2094            0.0000000000
      6281      2094  TIP3      H1             13.0379616386        0.9554343859        6.3153953451  W2        2094            0.0000000000
      6282      2094  TIP3      H2             13.7419616386        0.1001543859        7.3472753451  W2        2094            0.0000000000
      6283      2095  TIP3      OH2            -0.2222183614       -1.3683656141        4.9881753451  W2        2095            0.0000000000
      6284      2095  TIP3      H1             -0.4410483614       -0.8383056141        4.2217753451  W2        2095            0.0000000000
      6285      2095  TIP3      H2             -0.8901283614       -1.1418156141        5.6353153451  W2        2095            0.0000000000
      6286      2096  TIP3      OH2             7.1467616386        8.1317443859       -1.4679146549  W2        2096            0.0000000000
      6287      2096  TIP3      H1              6.8512716386        7.8089743859       -2.3192246549  W2        2096            0.0000000000
      6288      2096  TIP3      H2              6.8225416386        9.0314143859       -1.4266546549  W2        2096            0.0000000000
      6289      2097  TIP3      OH2             2.3469216386        6.3072043859        5.2755453451  W2        2097            0.0000000000
      6290      2097  TIP3      H1              1.6068316386        6.9053543859        5.3790653451  W2        2097            0.0000000000
      6291      2097  TIP3      H2              3.0608716386        6.8611643859        4.9599053451  W2        2097            0.0000000000
      6292      2098  TIP3      OH2            10.4537016386       -0.8647156141        1.2955153451  W2        2098            0.0000000000
      6293      2098  TIP3      H1             10.2385016386       -1.6303756141        1.8281153451  W2        2098            0.0000000000
      6294      2098  TIP3      H2             11.1094416386       -0.3922556141        1.8083653451  W2        2098            0.0000000000
      6295      2099  TIP3      OH2            -0.6284883614        0.5238143859        2.9403953451  W2        2099            0.0000000000
      6296      2099  TIP3      H1             -0.0148583614        1.1565743859        3.3136353451  W2        2099            0.0000000000
      6297      2099  TIP3      H2             -0.1164183614        0.0513143859        2.2840853451  W2        2099            0.0000000000
      6298      2100  TIP3      OH2             0.7543516386        8.2715043859        6.0626953451  W2        2100            0.0000000000
      6299      2100  TIP3      H1              0.7491116386        9.1508543859        5.6846253451  W2        2100            0.0000000000
      6300      2100  TIP3      H2             -0.0992383614        8.1879143859        6.4876853451  W2        2100            0.0000000000
      6301      2101  TIP3      OH2            -3.1245583614        7.9422943859       -3.1553746549  W2        2101            0.0000000000
      6302      2101  TIP3      H1             -3.3964683614        8.1713943859       -4.0440846549  W2        2101            0.0000000000
      6303      2101  TIP3      H2             -3.0789883614        8.7801743859       -2.6948446549  W2        2101            0.0000000000
      6304      2102  TIP3      OH2            10.5004116386        9.5638843859        3.5574753451  W2        2102            0.0000000000
      6305      2102  TIP3      H1              9.5587816386        9.6222743859        3.7191653451  W2        2102            0.0000000000
      6306      2102  TIP3      H2             10.7770216386       10.4699343859        3.4204453451  W2        2102            0.0000000000
      6307      2103  TIP3      OH2            10.8011116386       -2.1495856141        4.9748653451  W2        2103            0.0000000000
      6308      2103  TIP3      H1             10.0650316386       -1.5388756141        4.9369953451  W2        2103            0.0000000000
      6309      2103  TIP3      H2             11.4845116386       -1.7346856141        4.4485053451  W2        2103            0.0000000000
      6310      2104  TIP3      OH2             3.8042516386       -4.0628556141        2.4406653451  W2        2104            0.0000000000
      6311      2104  TIP3      H1              3.6866716386       -5.0112556141        2.3864953451  W2        2104            0.0000000000
      6312      2104  TIP3      H2              2.9492616386       -3.7302456141        2.7137753451  W2        2104            0.0000000000
      6313      2105  TIP3      OH2             8.7525316386       11.3452343859        0.1826353451  W2        2105            0.0000000000
      6314      2105  TIP3      H1              9.1777616386       10.6380243859       -0.3024046549  W2        2105            0.0000000000
      6315      2105  TIP3      H2              9.0695316386       12.1465043859       -0.2341446549  W2        2105            0.0000000000
      6316      2106  TIP3      OH2             9.9121816386        9.2460843859       -1.3087046549  W2        2106            0.0000000000
      6317      2106  TIP3      H1              9.6546616386        8.5560943859       -1.9201146549  W2        2106            0.0000000000
      6318      2106  TIP3      H2              9.9832616386        8.8032043859       -0.4631146549  W2        2106            0.0000000000
      6319      2107  TIP3      OH2            11.5982016386        7.8127543859        7.1686453451  W2        2107            0.0000000000
      6320      2107  TIP3      H1             11.7378316386        7.2210043859        6.4293453451  W2        2107            0.0000000000
      6321      2107  TIP3      H2             11.7654816386        8.6853443859        6.8125253451  W2        2107            0.0000000000
      6322      2108  TIP3      OH2             6.0707416386        4.7747043859       -3.0587546549  W2        2108            0.0000000000
      6323      2108  TIP3      H1              5.3592916386        5.3096743859       -3.4107046549  W2        2108            0.0000000000
      6324      2108  TIP3      H2              6.7617016386        4.8299143859       -3.7188646549  W2        2108            0.0000000000
      6325      2109  TIP3      OH2             6.1246616386        3.2321343859       -6.0202546549  W2        2109            0.0000000000
      6326      2109  TIP3      H1              6.8256516386        3.2548243859       -5.3688546549  W2        2109            0.0000000000
      6327      2109  TIP3      H2              6.4269516386        2.6041043859       -6.6763246549  W2        2109            0.0000000000
      6328      2110  TIP3      OH2            13.4401316386        4.1525543859        5.2346853451  W2        2110            0.0000000000
      6329      2110  TIP3      H1             12.7875416386        4.8471143859        5.3237753451  W2        2110            0.0000000000
      6330      2110  TIP3      H2             13.9051616386        4.3626443859        4.4248453451  W2        2110            0.0000000000
      6331      2111  TIP3      OH2             9.4765116386        4.9840343859       -2.1071646549  W2        2111            0.0000000000
      6332      2111  TIP3      H1              8.7446116386        5.2124043859       -1.5341046549  W2        2111            0.0000000000
      6333      2111  TIP3      H2              9.9237316386        4.2703043859       -1.6524146549  W2        2111            0.0000000000
      6334      2112  TIP3      OH2             9.3738616386        3.1582943859        6.9605353451  W2        2112            0.0000000000
      6335      2112  TIP3      H1              9.4537716386        3.9217343859        7.5323853451  W2        2112            0.0000000000
      6336      2112  TIP3      H2              8.7726316386        3.4375343859        6.2700453451  W2        2112            0.0000000000
      6337      2113  TIP3      OH2             1.1218816386        5.6146543859       -0.2246646549  W2        2113            0.0000000000
      6338      2113  TIP3      H1              0.7914016386        5.2439943859       -1.0429646549  W2        2113            0.0000000000
      6339      2113  TIP3      H2              1.7102916386        4.9440543859        0.1221653451  W2        2113            0.0000000000
      6340      2114  TIP3      OH2             2.4886316386        9.0427143859        2.4565553451  W2        2114            0.0000000000
      6341      2114  TIP3      H1              2.3937616386        8.4640243859        1.7000153451  W2        2114            0.0000000000
      6342      2114  TIP3      H2              3.2179916386        8.6712843859        2.9528353451  W2        2114            0.0000000000
      6343      2115  TIP3      OH2             1.4884316386        4.3832143859        3.4088353451  W2        2115            0.0000000000
      6344      2115  TIP3      H1              2.0536816386        4.5046343859        2.6459553451  W2        2115            0.0000000000
      6345      2115  TIP3      H2              1.8073216386        5.0207143859        4.0476853451  W2        2115            0.0000000000
      6346      2116  TIP3      OH2             7.7976516386        9.8864043859        4.1428853451  W2        2116            0.0000000000
      6347      2116  TIP3      H1              7.5573116386       10.5487143859        4.7908053451  W2        2116            0.0000000000
      6348      2116  TIP3      H2              7.5994716386        9.0519243859        4.5678453451  W2        2116            0.0000000000
      6349      2117  TIP3      OH2             2.3685016386        8.7824843859        8.1260253451  W2        2117            0.0000000000
      6350      2117  TIP3      H1              2.0572516386        9.5648043859        8.5813453451  W2        2117            0.0000000000
      6351      2117  TIP3      H2              1.7185216386        8.6293943859        7.4402253451  W2        2117            0.0000000000
      6352      2118  TIP3      OH2             8.3474616386        4.1463243859       -4.4220446549  W2        2118            0.0000000000
      6353      2118  TIP3      H1              8.9270116386        4.2963543859       -3.6751546549  W2        2118            0.0000000000
      6354      2118  TIP3      H2              8.7614616386        4.6170643859       -5.1454046549  W2        2118            0.0000000000
      6355      2119  TIP3      OH2            -0.7115083614        4.9805943859        7.3545953451  W2        2119            0.0000000000
      6356      2119  TIP3      H1             -0.6411883614        5.6312743859        8.0530953451  W2        2119            0.0000000000
      6357      2119  TIP3      H2             -1.6022883614        5.0833443859        7.0196853451  W2        2119            0.0000000000
      6358      2120  TIP3      OH2             6.0739516386       10.8831743859       -0.9867346549  W2        2120            0.0000000000
      6359      2120  TIP3      H1              6.5477116386       11.1788043859       -0.2093146549  W2        2120            0.0000000000
      6360      2120  TIP3      H2              5.5108816386       11.6213343859       -1.2197746549  W2        2120            0.0000000000
      6361      2121  TIP3      OH2             0.6080916386       10.8539843859        8.8894053451  W2        2121            0.0000000000
      6362      2121  TIP3      H1              0.6156216386       10.7179543859        7.9419553451  W2        2121            0.0000000000
      6363      2121  TIP3      H2             -0.3078683614       10.7367943859        9.1414053451  W2        2121            0.0000000000
      6364      2122  TIP3      OH2            12.0463016386       -4.1036356141       -4.6090746549  W2        2122            0.0000000000
      6365      2122  TIP3      H1             11.1463716386       -3.9647356141       -4.3140146549  W2        2122            0.0000000000
      6366      2122  TIP3      H2             12.2981416386       -3.2721756141       -5.0109046549  W2        2122            0.0000000000
      6367      2123  TIP3      OH2             0.1121516386        4.6840843859       -2.6353846549  W2        2123            0.0000000000
      6368      2123  TIP3      H1             -0.1797183614        5.4522543859       -3.1262546549  W2        2123            0.0000000000
      6369      2123  TIP3      H2             -0.5623283614        4.0247043859       -2.7982446549  W2        2123            0.0000000000
      6370      2124  TIP3      OH2            13.2354416386       10.2626043859       -6.2326846549  W2        2124            0.0000000000
      6371      2124  TIP3      H1             13.3087916386       11.2016243859       -6.0621546549  W2        2124            0.0000000000
      6372      2124  TIP3      H2             14.1409516386        9.9574643859       -6.2889546549  W2        2124            0.0000000000
      6373      2125  TIP3      OH2            -3.7948383614        7.0470043859        6.1795953451  W2        2125            0.0000000000
      6374      2125  TIP3      H1             -4.2959983614        7.0189443859        5.3645653451  W2        2125            0.0000000000
      6375      2125  TIP3      H2             -3.7894683614        6.1413243859        6.4893253451  W2        2125            0.0000000000
      6376      2126  TIP3      OH2            -4.0445683614        9.8273843859        3.0636153451  W2        2126            0.0000000000
      6377      2126  TIP3      H1             -3.0985083614        9.6830843859        3.0445653451  W2        2126            0.0000000000
      6378      2126  TIP3      H2             -4.1569383614       10.6116643859        3.6007353451  W2        2126            0.0000000000
      6379      2127  TIP3      OH2            14.1532816386       10.4933543859        8.7459853451  W2        2127            0.0000000000
      6380      2127  TIP3      H1             14.1039616386        9.5381643859        8.7087453451  W2        2127            0.0000000000
      6381      2127  TIP3      H2             13.3265116386       10.7608843859        9.1473653451  W2        2127            0.0000000000
      6382      2128  TIP3      OH2             5.1316816386       10.0672743859        7.6221253451  W2        2128            0.0000000000
      6383      2128  TIP3      H1              5.2191416386       10.8937343859        8.0970353451  W2        2128            0.0000000000
      6384      2128  TIP3      H2              4.2681916386        9.7376543859        7.8710553451  W2        2128            0.0000000000
      6385      2129  TIP3      OH2             5.5462616386       13.8396443859       -2.5718146549  W2        2129            0.0000000000
      6386      2129  TIP3      H1              5.4708616386       13.7183643859       -3.5182946549  W2        2129            0.0000000000
      6387      2129  TIP3      H2              5.5791316386       14.7889143859       -2.4533546549  W2        2129            0.0000000000
      6388      2130  TIP3      OH2            -0.8003583614       12.6283443859       -0.7909146549  W2        2130            0.0000000000
      6389      2130  TIP3      H1             -0.6483183614       12.2803843859        0.0877353451  W2        2130            0.0000000000
      6390      2130  TIP3      H2             -1.6513183614       12.2720743859       -1.0461946549  W2        2130            0.0000000000
      6391      2131  TIP3      OH2             8.6478616386       12.9936643859       -5.5695746549  W2        2131            0.0000000000
      6392      2131  TIP3      H1              9.0227016386       12.2492743859       -6.0403146549  W2        2131            0.0000000000
      6393      2131  TIP3      H2              8.6522316386       12.7237243859       -4.6512446549  W2        2131            0.0000000000
      6394      2132  TIP3      OH2             8.3166716386       12.9193743859       -2.8203546549  W2        2132            0.0000000000
      6395      2132  TIP3      H1              7.3816516386       13.0195643859       -2.6416546549  W2        2132            0.0000000000
      6396      2132  TIP3      H2              8.5968616386       12.2099743859       -2.2420346549  W2        2132            0.0000000000
      6397      2133  TIP3      OH2            11.3052616386        1.9866043859        9.2262053451  W2        2133            0.0000000000
      6398      2133  TIP3      H1             10.8979416386        2.4671643859        8.5055353451  W2        2133            0.0000000000
      6399      2133  TIP3      H2             11.3458316386        1.0812043859        8.9182853451  W2        2133            0.0000000000
      6400      2134  TIP3      OH2            -1.5457883614        8.3705443859        7.2228753451  W2        2134            0.0000000000
      6401      2134  TIP3      H1             -1.3296583614        8.0091043859        8.0824553451  W2        2134            0.0000000000
      6402      2134  TIP3      H2             -2.4013183614        7.9959243859        7.0132253451  W2        2134            0.0000000000
      6403      2135  TIP3      OH2             1.0730116386       -3.1594056141        3.2182953451  W2        2135            0.0000000000
      6404      2135  TIP3      H1              0.2113816386       -3.2465856141        2.8105853451  W2        2135            0.0000000000
      6405      2135  TIP3      H2              1.0505816386       -2.3033956141        3.6460553451  W2        2135            0.0000000000
      6406      2136  TIP3      OH2             5.7357916386       -3.4373656141        6.5929953451  W2        2136            0.0000000000
      6407      2136  TIP3      H1              6.1561016386       -3.8526556141        7.3460553451  W2        2136            0.0000000000
      6408      2136  TIP3      H2              4.8027516386       -3.6160356141        6.7101953451  W2        2136            0.0000000000
      6409      2137  TIP3      OH2             9.0622816386        0.3181543859        7.4464453451  W2        2137            0.0000000000
      6410      2137  TIP3      H1              8.5482316386        0.1923743859        8.2440453451  W2        2137            0.0000000000
      6411      2137  TIP3      H2              8.9067516386        1.2304643859        7.2020653451  W2        2137            0.0000000000
      6412      2138  TIP3      OH2             9.8247716386        5.1791543859       -6.7922546549  W2        2138            0.0000000000
      6413      2138  TIP3      H1              9.8668516386        4.9565443859       -7.7222546549  W2        2138            0.0000000000
      6414      2138  TIP3      H2             10.6739816386        5.5778643859       -6.6022646549  W2        2138            0.0000000000
      6415      2139  TIP3      OH2             5.3975216386       -0.9450256141       -6.1219246549  W2        2139            0.0000000000
      6416      2139  TIP3      H1              5.1440016386       -0.9258656141       -5.1991146549  W2        2139            0.0000000000
      6417      2139  TIP3      H2              5.1407316386       -1.8164856141       -6.4233046549  W2        2139            0.0000000000
      6418      2140  TIP3      OH2             1.1640216386        1.8060443859        4.3133153451  W2        2140            0.0000000000
      6419      2140  TIP3      H1              0.5222316386        1.7657743859        5.0223253451  W2        2140            0.0000000000
      6420      2140  TIP3      H2              1.2012216386        2.7325143859        4.0756153451  W2        2140            0.0000000000
      6421      2141  TIP3      OH2             1.1609316386        2.0270543859       -0.7746846549  W2        2141            0.0000000000
      6422      2141  TIP3      H1              0.2682216386        1.6866643859       -0.8333046549  W2        2141            0.0000000000
      6423      2141  TIP3      H2              1.6115916386        1.6501443859       -1.5303646549  W2        2141            0.0000000000
      6424      2142  TIP3      OH2             6.6964816386        2.4430843859       -1.9576046549  W2        2142            0.0000000000
      6425      2142  TIP3      H1              6.2875116386        3.2579443859       -2.2491246549  W2        2142            0.0000000000
      6426      2142  TIP3      H2              7.4171016386        2.3030943859       -2.5718946549  W2        2142            0.0000000000
      6427      2143  TIP3      OH2             5.7986416386        2.6187243859        9.5304653451  W2        2143            0.0000000000
      6428      2143  TIP3      H1              5.2360216386        1.9138843859        9.8512453451  W2        2143            0.0000000000
      6429      2143  TIP3      H2              6.6249816386        2.4979143859        9.9982253451  W2        2143            0.0000000000
      6430      2144  TIP3      OH2             7.7012516386        1.8891243859        0.8563653451  W2        2144            0.0000000000
      6431      2144  TIP3      H1              7.5057016386        2.4948043859        0.1414253451  W2        2144            0.0000000000
      6432      2144  TIP3      H2              7.8825116386        1.0556443859        0.4219953451  W2        2144            0.0000000000
      6433      2145  TIP3      OH2            -1.0859283614        2.1263943859        6.1805153451  W2        2145            0.0000000000
      6434      2145  TIP3      H1             -1.1239883614        2.5265543859        7.0492253451  W2        2145            0.0000000000
      6435      2145  TIP3      H2             -1.5768183614        1.3096343859        6.2708053451  W2        2145            0.0000000000
      6436      2146  TIP3      OH2             2.2798116386       -0.4993756141       -7.0208846549  W2        2146            0.0000000000
      6437      2146  TIP3      H1              1.8488816386       -0.9443656141       -6.2911446549  W2        2146            0.0000000000
      6438      2146  TIP3      H2              1.5616816386       -0.1277456141       -7.5331346549  W2        2146            0.0000000000
      6439      2147  TIP3      OH2            -4.4778483614       -0.7574256141        0.0309853451  W2        2147            0.0000000000
      6440      2147  TIP3      H1             -3.8470783614       -0.7862156141        0.7503753451  W2        2147            0.0000000000
      6441      2147  TIP3      H2             -4.0284183614       -1.1825556141       -0.6994246549  W2        2147            0.0000000000
      6442      2148  TIP3      OH2            -3.2036383614       -0.0112256141       -4.5449746549  W2        2148            0.0000000000
      6443      2148  TIP3      H1             -2.7294683614        0.5797643859       -5.1298846549  W2        2148            0.0000000000
      6444      2148  TIP3      H2             -3.9209983614        0.5190643859       -4.1979646549  W2        2148            0.0000000000
      6445      2149  TIP3      OH2             6.9651716386        3.5272543859        5.5276053451  W2        2149            0.0000000000
      6446      2149  TIP3      H1              7.2886516386        2.8962243859        4.8846553451  W2        2149            0.0000000000
      6447      2149  TIP3      H2              6.5251016386        2.9924743859        6.1883453451  W2        2149            0.0000000000
      6448      2150  TIP3      OH2             3.7424616386       -0.5451956141        0.3117253451  W2        2150            0.0000000000
      6449      2150  TIP3      H1              2.8315716386       -0.4885156141        0.6003253451  W2        2150            0.0000000000
      6450      2150  TIP3      H2              4.2477516386       -0.6056456141        1.1224453451  W2        2150            0.0000000000
      6451      2151  TIP3      OH2            -1.4291983614        1.0834343859       -0.8615146549  W2        2151            0.0000000000
      6452      2151  TIP3      H1             -2.3183983614        1.1829843859       -1.2015546549  W2        2151            0.0000000000
      6453      2151  TIP3      H2             -1.1327083614        0.2417343859       -1.2077246549  W2        2151            0.0000000000
      6454      2152  TIP3      OH2             2.2239816386        1.0836943859       -3.2050546549  W2        2152            0.0000000000
      6455      2152  TIP3      H1              3.1555316386        1.2126943859       -3.0267446549  W2        2152            0.0000000000
      6456      2152  TIP3      H2              2.0090116386        1.7531243859       -3.8545846549  W2        2152            0.0000000000
      6457      2153  TIP3      OH2             8.1476516386       -1.3105656141        3.5759053451  W2        2153            0.0000000000
      6458      2153  TIP3      H1              7.4708116386       -1.1792556141        4.2398753451  W2        2153            0.0000000000
      6459      2153  TIP3      H2              7.6621416386       -1.4656156141        2.7656753451  W2        2153            0.0000000000
      6460      2154  TIP3      OH2             0.8980016386        2.2779143859       -5.6384446549  W2        2154            0.0000000000
      6461      2154  TIP3      H1              0.3555116386        1.8982943859       -6.3296846549  W2        2154            0.0000000000
      6462      2154  TIP3      H2              1.7314916386        2.4723843859       -6.0670346549  W2        2154            0.0000000000
      6463      2155  TIP3      OH2            11.4351616386       14.3609743859        9.8526653451  W2        2155            0.0000000000
      6464      2155  TIP3      H1             11.6350316386       14.7851643859        9.0181953451  W2        2155            0.0000000000
      6465      2155  TIP3      H2             12.0905316386       14.7047943859       10.4597053451  W2        2155            0.0000000000
      6466      2156  TIP3      OH2            -0.9668583614        6.8351043859        9.4607153451  W2        2156            0.0000000000
      6467      2156  TIP3      H1             -0.2346183614        7.0896943859       10.0221653451  W2        2156            0.0000000000
      6468      2156  TIP3      H2             -1.7469883614        7.0396443859        9.9762553451  W2        2156            0.0000000000
      6469      2157  TIP3      OH2             5.0624316386        2.2421043859        2.1986853451  W2        2157            0.0000000000
      6470      2157  TIP3      H1              5.6267716386        1.6957643859        1.6516453451  W2        2157            0.0000000000
      6471      2157  TIP3      H2              4.9147716386        1.7202943859        2.9874453451  W2        2157            0.0000000000
      6472      2158  TIP3      OH2             0.0644016386       -1.6212856141       -1.3828346549  W2        2158            0.0000000000
      6473      2158  TIP3      H1             -0.2526483614       -2.5237556141       -1.4182946549  W2        2158            0.0000000000
      6474      2158  TIP3      H2              0.8458116386       -1.6195456141       -1.9356746549  W2        2158            0.0000000000
      6475      2159  TIP3      OH2             3.6890216386        0.6307143859        4.6127253451  W2        2159            0.0000000000
      6476      2159  TIP3      H1              2.8535516386        1.0846643859        4.7229653451  W2        2159            0.0000000000
      6477      2159  TIP3      H2              4.2130816386        0.9065643859        5.3647153451  W2        2159            0.0000000000
      6478      2160  TIP3      OH2             4.2332816386        6.8434843859       -3.7026346549  W2        2160            0.0000000000
      6479      2160  TIP3      H1              3.4883816386        6.3360143859       -4.0248446549  W2        2160            0.0000000000
      6480      2160  TIP3      H2              4.0990016386        6.8922843859       -2.7561546549  W2        2160            0.0000000000
      6481      2161  TIP3      OH2            11.3831716386        5.9763043859        5.0841253451  W2        2161            0.0000000000
      6482      2161  TIP3      H1             12.0250516386        6.4329343859        4.5403453451  W2        2161            0.0000000000
      6483      2161  TIP3      H2             10.5528616386        6.0895443859        4.6215353451  W2        2161            0.0000000000
      6484      2162  TIP3      OH2             8.1309616386       -0.3425256141       -5.5033746549  W2        2162            0.0000000000
      6485      2162  TIP3      H1              7.1923816386       -0.2309656141       -5.6544946549  W2        2162            0.0000000000
      6486      2162  TIP3      H2              8.4281716386        0.5141643859       -5.1968046549  W2        2162            0.0000000000
      6487      2163  TIP3      OH2             5.7524916386        7.0278143859        7.5342753451  W2        2163            0.0000000000
      6488      2163  TIP3      H1              5.4071016386        6.6460543859        8.3412353451  W2        2163            0.0000000000
      6489      2163  TIP3      H2              5.5525016386        7.9611743859        7.6055653451  W2        2163            0.0000000000
      6490      2164  TIP3      OH2             8.8493116386        1.5247443859       -3.8426346549  W2        2164            0.0000000000
      6491      2164  TIP3      H1              9.7412116386        1.3872443859       -3.5235146549  W2        2164            0.0000000000
      6492      2164  TIP3      H2              8.9056716386        2.3153543859       -4.3792846549  W2        2164            0.0000000000
      6493      2165  TIP3      OH2            -0.6418883614        6.1384843859        2.0671553451  W2        2165            0.0000000000
      6494      2165  TIP3      H1              0.1028316386        6.1360543859        1.4658053451  W2        2165            0.0000000000
      6495      2165  TIP3      H2             -0.5642283614        5.3148643859        2.5486653451  W2        2165            0.0000000000
      6496      2166  TIP3      OH2             6.3586916386        8.3019143859       -4.6771746549  W2        2166            0.0000000000
      6497      2166  TIP3      H1              6.0635316386        9.1287043859       -4.2956946549  W2        2166            0.0000000000
      6498      2166  TIP3      H2              5.6556916386        7.6826043859       -4.4810346549  W2        2166            0.0000000000
      6499      2167  TIP3      OH2            -3.6339183614        4.5991743859        7.3820053451  W2        2167            0.0000000000
      6500      2167  TIP3      H1             -3.4110583614        4.1811343859        8.2137553451  W2        2167            0.0000000000
      6501      2167  TIP3      H2             -4.2359083614        3.9866743859        6.9592853451  W2        2167            0.0000000000
      6502      2168  TIP3      OH2             3.3825716386        4.1161643859        9.5949753451  W2        2168            0.0000000000
      6503      2168  TIP3      H1              3.0866516386        3.9504643859        8.6998853451  W2        2168            0.0000000000
      6504      2168  TIP3      H2              4.3140916386        3.8961943859        9.5843653451  W2        2168            0.0000000000
      6505      2169  TIP3      OH2             8.0028516386        9.4893643859        7.4847753451  W2        2169            0.0000000000
      6506      2169  TIP3      H1              7.1022816386        9.6726243859        7.2171653451  W2        2169            0.0000000000
      6507      2169  TIP3      H2              8.0369616386        9.7482943859        8.4056553451  W2        2169            0.0000000000
      6508      2170  TIP3      OH2            13.7341816386        1.7341543859       -4.1479646549  W2        2170            0.0000000000
      6509      2170  TIP3      H1             13.1798116386        1.3379543859       -4.8202146549  W2        2170            0.0000000000
      6510      2170  TIP3      H2             13.8345416386        2.6446743859       -4.4256346549  W2        2170            0.0000000000
      6511      2171  TIP3      OH2            13.6973816386        7.5343243859        8.6891853451  W2        2171            0.0000000000
      6512      2171  TIP3      H1             12.8462316386        7.7727043859        8.3218253451  W2        2171            0.0000000000
      6513      2171  TIP3      H2             14.2877216386        7.5176443859        7.9358953451  W2        2171            0.0000000000
      6514      2172  TIP3      OH2            12.0293516386       10.5201943859       -3.6827546549  W2        2172            0.0000000000
      6515      2172  TIP3      H1             11.6564616386        9.6945743859       -3.3736946549  W2        2172            0.0000000000
      6516      2172  TIP3      H2             12.3067016386       10.3371343859       -4.5804146549  W2        2172            0.0000000000
      6517      2173  TIP3      OH2             9.1897416386        5.3281443859        3.3384353451  W2        2173            0.0000000000
      6518      2173  TIP3      H1              8.2614316386        5.0963343859        3.3113653451  W2        2173            0.0000000000
      6519      2173  TIP3      H2              9.6408516386        4.5511243859        3.0083153451  W2        2173            0.0000000000
      6520      2174  TIP3      OH2             1.7330516386        9.6563043859       -0.5286946549  W2        2174            0.0000000000
      6521      2174  TIP3      H1              2.2602716386       10.4297443859       -0.7288146549  W2        2174            0.0000000000
      6522      2174  TIP3      H2              0.8529016386        9.8812243859       -0.8302946549  W2        2174            0.0000000000
      6523      2175  TIP3      OH2            -2.5121783614        4.5187143859       -5.9414546549  W2        2175            0.0000000000
      6524      2175  TIP3      H1             -1.8961883614        5.1454343859       -5.5619746549  W2        2175            0.0000000000
      6525      2175  TIP3      H2             -3.3739183614        4.8346943859       -5.6698046549  W2        2175            0.0000000000
      6526      2176  TIP3      OH2             3.1602816386        7.3192943859       -0.9522646549  W2        2176            0.0000000000
      6527      2176  TIP3      H1              2.9192816386        8.2447343859       -0.9107346549  W2        2176            0.0000000000
      6528      2176  TIP3      H2              2.4196416386        6.8604243859       -0.5558746549  W2        2176            0.0000000000
      6529      2177  TIP3      OH2             3.6749416386       11.4686543859        5.3628453451  W2        2177            0.0000000000
      6530      2177  TIP3      H1              4.0374116386       12.3232143859        5.1292853451  W2        2177            0.0000000000
      6531      2177  TIP3      H2              4.2064616386       11.1768143859        6.1034753451  W2        2177            0.0000000000
      6532      2178  TIP3      OH2             1.8433616386       12.3410543859       -1.4070446549  W2        2178            0.0000000000
      6533      2178  TIP3      H1              0.8934116386       12.4467943859       -1.3557146549  W2        2178            0.0000000000
      6534      2178  TIP3      H2              2.1951716386       13.1617943859       -1.0622946549  W2        2178            0.0000000000
      6535      2179  TIP3      OH2             7.2190216386        7.5677243859        5.0634053451  W2        2179            0.0000000000
      6536      2179  TIP3      H1              6.7931516386        7.3398943859        5.8898053451  W2        2179            0.0000000000
      6537      2179  TIP3      H2              7.7996016386        6.8289043859        4.8809353451  W2        2179            0.0000000000
      6538      2180  TIP3      OH2             9.4219116386        8.4967743859       -5.8626946549  W2        2180            0.0000000000
      6539      2180  TIP3      H1              9.7752216386        8.1167543859       -5.0583446549  W2        2180            0.0000000000
      6540      2180  TIP3      H2              8.4732616386        8.4032543859       -5.7757646549  W2        2180            0.0000000000
      6541      2181  TIP3      OH2             9.8774416386       12.1196743859        7.5328853451  W2        2181            0.0000000000
      6542      2181  TIP3      H1              9.2757616386       11.5639643859        7.0375153451  W2        2181            0.0000000000
      6543      2181  TIP3      H2             10.1588116386       12.7866543859        6.9066253451  W2        2181            0.0000000000
      6544      2182  TIP3      OH2            13.9253516386       12.9760243859       -5.6616746549  W2        2182            0.0000000000
      6545      2182  TIP3      H1             14.6691416386       13.5620743859       -5.8015146549  W2        2182            0.0000000000
      6546      2182  TIP3      H2             13.2311616386       13.5446043859       -5.3284346549  W2        2182            0.0000000000
      6547      2183  TIP3      OH2            -1.9999683614       -0.6475556141        6.9401453451  W2        2183            0.0000000000
      6548      2183  TIP3      H1             -2.8927383614       -0.3090156141        6.8725453451  W2        2183            0.0000000000
      6549      2183  TIP3      H2             -2.0986883614       -1.5029456141        7.3582253451  W2        2183            0.0000000000
      6550      2184  TIP3      OH2            10.2878416386        7.1689743859       -3.6359046549  W2        2184            0.0000000000
      6551      2184  TIP3      H1             10.0106016386        6.4409043859       -3.0797946549  W2        2184            0.0000000000
      6552      2184  TIP3      H2             11.2151416386        7.2881743859       -3.4306446549  W2        2184            0.0000000000
      6553      2185  TIP3      OH2            -2.3487683614       11.1568843859        5.3750853451  W2        2185            0.0000000000
      6554      2185  TIP3      H1             -2.1317383614       10.2251243859        5.3440553451  W2        2185            0.0000000000
      6555      2185  TIP3      H2             -2.1024183614       11.4313843859        6.2583653451  W2        2185            0.0000000000
      6556      2186  TIP3      OH2             3.5126916386        9.6083843859       -7.4156946549  W2        2186            0.0000000000
      6557      2186  TIP3      H1              3.7516716386        8.8601943859       -7.9628046549  W2        2186            0.0000000000
      6558      2186  TIP3      H2              3.2438216386        9.2205543859       -6.5829146549  W2        2186            0.0000000000
      6559      2187  TIP3      OH2             2.4497516386        9.1787643859       -4.9594346549  W2        2187            0.0000000000
      6560      2187  TIP3      H1              2.5965516386        8.6587443859       -4.1693446549  W2        2187            0.0000000000
      6561      2187  TIP3      H2              2.4469216386       10.0855243859       -4.6528446549  W2        2187            0.0000000000
      6562      2188  TIP3      OH2            -1.0971383614        6.4310943859       -4.4488946549  W2        2188            0.0000000000
      6563      2188  TIP3      H1             -1.7832083614        6.7833443859       -3.8819246549  W2        2188            0.0000000000
      6564      2188  TIP3      H2             -0.5743483614        7.1940543859       -4.6954646549  W2        2188            0.0000000000
      6565      2189  TIP3      OH2             6.7343716386       -0.9065256141        5.8300053451  W2        2189            0.0000000000
      6566      2189  TIP3      H1              7.4331616386       -0.8326556141        6.4799753451  W2        2189            0.0000000000
      6567      2189  TIP3      H2              6.3535116386       -1.7710256141        5.9842953451  W2        2189            0.0000000000
      6568      2190  TIP3      OH2             7.5188616386       -1.2543556141       -3.0727646549  W2        2190            0.0000000000
      6569      2190  TIP3      H1              7.7386916386       -0.7828156141       -3.8762246549  W2        2190            0.0000000000
      6570      2190  TIP3      H2              8.0772616386       -0.8600956141       -2.4027046549  W2        2190            0.0000000000
      6571      2191  TIP3      OH2             5.1874716386       10.8761243859       -4.2100146549  W2        2191            0.0000000000
      6572      2191  TIP3      H1              4.3710816386       11.3730943859       -4.1575846549  W2        2191            0.0000000000
      6573      2191  TIP3      H2              5.7171016386       11.3514743859       -4.8501346549  W2        2191            0.0000000000
      6574      2192  TIP3      OH2             4.7188516386        0.4735243859       -2.2379246549  W2        2192            0.0000000000
      6575      2192  TIP3      H1              5.5311116386        0.9778443859       -2.1917546549  W2        2192            0.0000000000
      6576      2192  TIP3      H2              4.4741516386        0.3284943859       -1.3239646549  W2        2192            0.0000000000
      6577      2193  TIP3      OH2             5.2544916386        1.4597943859        6.9467353451  W2        2193            0.0000000000
      6578      2193  TIP3      H1              5.3735216386        2.0333343859        7.7037753451  W2        2193            0.0000000000
      6579      2193  TIP3      H2              5.9099516386        0.7717343859        7.0615153451  W2        2193            0.0000000000
      6580      2194  TIP3      OH2             5.6025216386       -2.4451756141       -1.2998146549  W2        2194            0.0000000000
      6581      2194  TIP3      H1              5.2558716386       -1.8281156141       -0.6553846549  W2        2194            0.0000000000
      6582      2194  TIP3      H2              6.2612116386       -1.9446056141       -1.7812646549  W2        2194            0.0000000000
      6583      2195  TIP3      OH2             2.5257816386       11.9198443859       -4.2283246549  W2        2195            0.0000000000
      6584      2195  TIP3      H1              2.6866516386       12.7195943859       -4.7290646549  W2        2195            0.0000000000
      6585      2195  TIP3      H2              2.3285616386       12.2264443859       -3.3432646549  W2        2195            0.0000000000
      6586      2196  TIP3      OH2             1.2602216386       -1.3822356141       -4.6125646549  W2        2196            0.0000000000
      6587      2196  TIP3      H1              1.1767016386       -0.4939256141       -4.2659246549  W2        2196            0.0000000000
      6588      2196  TIP3      H2              2.1502516386       -1.6475656141       -4.3808846549  W2        2196            0.0000000000
      6589      2197  TIP3      OH2            11.4590716386       -0.6331756141        7.7817053451  W2        2197            0.0000000000
      6590      2197  TIP3      H1             10.5426516386       -0.3710056141        7.6940753451  W2        2197            0.0000000000
      6591      2197  TIP3      H2             11.7945716386       -0.6362756141        6.8852353451  W2        2197            0.0000000000
      6592      2198  TIP3      OH2            10.0611716386        3.1169243859        1.8774353451  W2        2198            0.0000000000
      6593      2198  TIP3      H1              9.2636116386        2.7019443859        1.5489353451  W2        2198            0.0000000000
      6594      2198  TIP3      H2             10.5062816386        2.4262943859        2.3684853451  W2        2198            0.0000000000
      6595      2199  TIP3      OH2            -0.4812483614        9.0449843859       -5.5521146549  W2        2199            0.0000000000
      6596      2199  TIP3      H1              0.1109016386        9.7444643859       -5.2758746549  W2        2199            0.0000000000
      6597      2199  TIP3      H2             -0.0219483614        8.6119343859       -6.2716546549  W2        2199            0.0000000000
      6598      2200  TIP3      OH2            -2.1653283614        1.7092843859       -6.4361746549  W2        2200            0.0000000000
      6599      2200  TIP3      H1             -2.2100683614        2.6485943859       -6.2574746549  W2        2200            0.0000000000
      6600      2200  TIP3      H2             -3.0530083614        1.4737743859       -6.7059646549  W2        2200            0.0000000000
      6601      2201  TIP3      OH2            11.1476316386       12.3731743859        3.4997853451  W2        2201            0.0000000000
      6602      2201  TIP3      H1             10.9920616386       13.0516143859        2.8427153451  W2        2201            0.0000000000
      6603      2201  TIP3      H2             12.0802716386       12.4451043859        3.7028453451  W2        2201            0.0000000000
      6604      2202  TIP3      OH2            -1.3571283614       -3.5090556141        2.2369253451  W2        2202            0.0000000000
      6605      2202  TIP3      H1             -1.5861483614       -3.4498056141        1.3094253451  W2        2202            0.0000000000
      6606      2202  TIP3      H2             -1.7997883614       -4.3005056141        2.5433353451  W2        2202            0.0000000000
      6607      2203  TIP3      OH2            -2.4267983614       10.4316543859       -1.6024946549  W2        2203            0.0000000000
      6608      2203  TIP3      H1             -3.2589383614       10.9039243859       -1.5753546549  W2        2203            0.0000000000
      6609      2203  TIP3      H2             -1.8809683614       10.9414143859       -2.2011846549  W2        2203            0.0000000000
      6610      2204  TIP3      OH2            -3.1384283614       13.0440243859        9.7273053451  W2        2204            0.0000000000
      6611      2204  TIP3      H1             -2.5982083614       12.8274243859       10.4872253451  W2        2204            0.0000000000
      6612      2204  TIP3      H2             -3.6196283614       12.2386243859        9.5375553451  W2        2204            0.0000000000
      6613      2205  TIP3      OH2             1.4589116386       11.9634643859       11.3477253451  W2        2205            0.0000000000
      6614      2205  TIP3      H1              2.2266316386       11.5045443859       11.6886453451  W2        2205            0.0000000000
      6615      2205  TIP3      H2              1.4375316386       11.7374443859       10.4178453451  W2        2205            0.0000000000
      6616      2206  TIP3      OH2             5.5508716386       11.4715243859       -7.2770946549  W2        2206            0.0000000000
      6617      2206  TIP3      H1              4.9069716386       10.8403843859       -6.9557246549  W2        2206            0.0000000000
      6618      2206  TIP3      H2              6.3127016386       10.9403243859       -7.5087446549  W2        2206            0.0000000000
      6619      2207  TIP3      OH2             8.0357816386       10.3435743859       10.0768753451  W2        2207            0.0000000000
      6620      2207  TIP3      H1              7.6847316386        9.4868743859       10.3199153451  W2        2207            0.0000000000
      6621      2207  TIP3      H2              8.7621016386       10.4862443859       10.6837753451  W2        2207            0.0000000000
      6622      2208  TIP3      OH2            10.1551616386       11.2885143859       -7.0432946549  W2        2208            0.0000000000
      6623      2208  TIP3      H1             10.4382016386       10.4940343859       -6.5906046549  W2        2208            0.0000000000
      6624      2208  TIP3      H2             10.8949516386       11.5216143859       -7.6041846549  W2        2208            0.0000000000
      6625      2209  TIP3      OH2            -3.2314783614        6.8544343859       10.6817353451  W2        2209            0.0000000000
      6626      2209  TIP3      H1             -3.0874283614        5.9525043859       10.3954053451  W2        2209            0.0000000000
      6627      2209  TIP3      H2             -4.0037383614        7.1406443859       10.1939653451  W2        2209            0.0000000000
      6628      2210  TIP3      OH2             1.1098916386        7.1980043859       -7.1858046549  W2        2210            0.0000000000
      6629      2210  TIP3      H1              1.1743016386        6.4039643859       -6.6551646549  W2        2210            0.0000000000
      6630      2210  TIP3      H2              1.7628116386        7.0792843859       -7.8756046549  W2        2210            0.0000000000
      6631      2211  TIP3      OH2             3.4241316386        6.8242443859       10.1143753451  W2        2211            0.0000000000
      6632      2211  TIP3      H1              3.0955116386        7.0950543859        9.2571153451  W2        2211            0.0000000000
      6633      2211  TIP3      H2              3.5759516386        5.8832243859       10.0268753451  W2        2211            0.0000000000
      6634      2212  TIP3      OH2             6.4622316386        8.2451743859       -7.4500046549  W2        2212            0.0000000000
      6635      2212  TIP3      H1              6.1936416386        8.4253843859       -6.5491146549  W2        2212            0.0000000000
      6636      2212  TIP3      H2              6.2557916386        7.3197943859       -7.5814246549  W2        2212            0.0000000000
      6637      2213  TIP3      OH2             9.1586516386        6.7399743859        7.4976053451  W2        2213            0.0000000000
      6638      2213  TIP3      H1              9.9041316386        7.3283443859        7.3780053451  W2        2213            0.0000000000
      6639      2213  TIP3      H2              8.4013316386        7.3219443859        7.5609153451  W2        2213            0.0000000000
      6640      2214  TIP3      OH2            -2.3988283614        4.0547643859       10.1016653451  W2        2214            0.0000000000
      6641      2214  TIP3      H1             -1.9907083614        3.1974243859        9.9807253451  W2        2214            0.0000000000
      6642      2214  TIP3      H2             -2.6590683614        4.0688943859       11.0226953451  W2        2214            0.0000000000
      6643      2215  TIP3      OH2             2.2592716386        5.1706243859       -4.8800046549  W2        2215            0.0000000000
      6644      2215  TIP3      H1              1.7994716386        4.6864543859       -4.1941546549  W2        2215            0.0000000000
      6645      2215  TIP3      H2              2.5141416386        4.5021643859       -5.5159546549  W2        2215            0.0000000000
      6646      2216  TIP3      OH2             1.5482016386        3.0633343859        7.4759553451  W2        2216            0.0000000000
      6647      2216  TIP3      H1              0.9298116386        3.7379943859        7.7564253451  W2        2216            0.0000000000
      6648      2216  TIP3      H2              1.8923216386        3.3847243859        6.6425753451  W2        2216            0.0000000000
      6649      2217  TIP3      OH2             3.3303116386        3.4138043859       -6.6176846549  W2        2217            0.0000000000
      6650      2217  TIP3      H1              3.1498116386        3.2589243859       -7.5448546549  W2        2217            0.0000000000
      6651      2217  TIP3      H2              4.2803616386        3.5216743859       -6.5728946549  W2        2217            0.0000000000
      6652      2218  TIP3      OH2             6.5680216386        5.5348643859       10.7534353451  W2        2218            0.0000000000
      6653      2218  TIP3      H1              7.5211416386        5.6187743859       10.7260353451  W2        2218            0.0000000000
      6654      2218  TIP3      H2              6.4074816386        4.8230443859       11.3729253451  W2        2218            0.0000000000
      6655      2219  TIP3      OH2            12.7201416386        5.7682243859       -7.1718746549  W2        2219            0.0000000000
      6656      2219  TIP3      H1             12.4466216386        5.3437743859       -7.9850446549  W2        2219            0.0000000000
      6657      2219  TIP3      H2             12.7595516386        6.6996743859       -7.3888346549  W2        2219            0.0000000000
      6658      2220  TIP3      OH2             1.8875716386        0.4184143859        8.5582653451  W2        2220            0.0000000000
      6659      2220  TIP3      H1              2.0376616386       -0.3104556141        7.9562353451  W2        2220            0.0000000000
      6660      2220  TIP3      H2              1.8898116386        1.1955843859        7.9994853451  W2        2220            0.0000000000
      6661      2221  TIP3      OH2             2.3001416386       -1.2120056141        6.0510053451  W2        2221            0.0000000000
      6662      2221  TIP3      H1              2.8358916386       -0.7603356141        5.3989353451  W2        2221            0.0000000000
      6663      2221  TIP3      H2              1.4481016386       -1.3200256141        5.6284153451  W2        2221            0.0000000000
      6664      2222  TIP3      OH2             3.8819816386        4.2276143859        6.2905253451  W2        2222            0.0000000000
      6665      2222  TIP3      H1              4.6324616386        4.0713643859        5.7173053451  W2        2222            0.0000000000
      6666      2222  TIP3      H2              3.5428116386        5.0792743859        6.0150753451  W2        2222            0.0000000000
      6667      2223  TIP3      OH2             8.2976016386        2.0427943859       11.3190553451  W2        2223            0.0000000000
      6668      2223  TIP3      H1              8.4897316386        1.1117343859       11.2075053451  W2        2223            0.0000000000
      6669      2223  TIP3      H2              9.1552316386        2.4677443859       11.3085953451  W2        2223            0.0000000000
      6670      2224  TIP3      OH2             9.6143216386        4.8313143859        9.3963253451  W2        2224            0.0000000000
      6671      2224  TIP3      H1              9.3328216386        5.5407743859        8.8187053451  W2        2224            0.0000000000
      6672      2224  TIP3      H2             10.5567516386        4.7586143859        9.2454453451  W2        2224            0.0000000000
      6673      2225  TIP3      OH2             0.3662016386        1.6167643859       10.4698253451  W2        2225            0.0000000000
      6674      2225  TIP3      H1             -0.4008983614        1.0842443859       10.2595853451  W2        2225            0.0000000000
      6675      2225  TIP3      H2              1.0451016386        1.3068043859        9.8704553451  W2        2225            0.0000000000
      6676      2226  TIP3      OH2             3.1056916386       -3.7554356141        6.4823653451  W2        2226            0.0000000000
      6677      2226  TIP3      H1              3.0076516386       -2.8091156141        6.3769853451  W2        2226            0.0000000000
      6678      2226  TIP3      H2              2.3633116386       -4.1280556141        6.0067153451  W2        2226            0.0000000000
      6679      2227  TIP3      OH2             4.3697416386        0.5661043859       10.0462053451  W2        2227            0.0000000000
      6680      2227  TIP3      H1              4.1342816386        0.3467743859       10.9476953451  W2        2227            0.0000000000
      6681      2227  TIP3      H2              3.5864316386        0.3592243859        9.5364553451  W2        2227            0.0000000000
      6682      2228  TIP3      OH2             7.0854016386       -0.3065456141        9.1215553451  W2        2228            0.0000000000
      6683      2228  TIP3      H1              6.1379416386       -0.2745756141        9.2538853451  W2        2228            0.0000000000
      6684      2228  TIP3      H2              7.3980716386       -0.9318356141        9.7753753451  W2        2228            0.0000000000
      6685      2229  TIP3      OH2             8.7195516386       -1.6724356141       11.1267453451  W2        2229            0.0000000000
      6686      2229  TIP3      H1              8.6227316386       -2.6247056141       11.1209353451  W2        2229            0.0000000000
      6687      2229  TIP3      H2              8.3978616386       -1.4037556141       11.9872953451  W2        2229            0.0000000000
      6688      2230  TIP3      OH2            -1.4535183614       -0.4628556141       10.1742953451  W2        2230            0.0000000000
      6689      2230  TIP3      H1             -1.2417783614       -1.1692456141        9.5640453451  W2        2230            0.0000000000
      6690      2230  TIP3      H2             -1.5647683614       -0.9002556141       11.0184153451  W2        2230            0.0000000000
      6691      2231  TIP3      OH2             3.3275016386       -4.4616956141        9.1536453451  W2        2231            0.0000000000
      6692      2231  TIP3      H1              4.0393416386       -5.1014756141        9.1395553451  W2        2231            0.0000000000
      6693      2231  TIP3      H2              3.2265416386       -4.1948656141        8.2399553451  W2        2231            0.0000000000
      6694      2232  TIP3      OH2             3.6812516386       -2.7788556141       11.2072753451  W2        2232            0.0000000000
      6695      2232  TIP3      H1              3.5494716386       -3.2544756141       10.3871253451  W2        2232            0.0000000000
      6696      2232  TIP3      H2              3.0819916386       -2.0344956141       11.1519853451  W2        2232            0.0000000000
      6697      2233  TIP3      OH2             3.2274816386       14.1041743859       -5.6163246549  W2        2233            0.0000000000
      6698      2233  TIP3      H1              4.1605516386       14.2620443859       -5.4724846549  W2        2233            0.0000000000
      6699      2233  TIP3      H2              2.9633616386       14.7794743859       -6.2411746549  W2        2233            0.0000000000
      6700      2234  TIP3      OH2            -3.2040283614        8.7405543859       -6.1335146549  W2        2234            0.0000000000
      6701      2234  TIP3      H1             -2.2901083614        8.8194443859       -5.8601246549  W2        2234            0.0000000000
      6702      2234  TIP3      H2             -3.1967183614        8.0535143859       -6.7999546549  W2        2234            0.0000000000
      6703      2235  TIP3      OH2            -4.5549683614       14.1334043859       -1.0561246549  W2        2235            0.0000000000
      6704      2235  TIP3      H1             -5.2022583614       13.6715743859       -1.5890046549  W2        2235            0.0000000000
      6705      2235  TIP3      H2             -4.2005083614       13.4617343859       -0.4735046549  W2        2235            0.0000000000
      6706      2236  TIP3      OH2            -3.6850483614       12.2141043859        0.7484953451  W2        2236            0.0000000000
      6707      2236  TIP3      H1             -4.0193683614       11.3338343859        0.9205153451  W2        2236            0.0000000000
      6708      2236  TIP3      H2             -3.4628083614       12.5596043859        1.6130553451  W2        2236            0.0000000000
      6709      2237  TIP3      OH2            13.8634316386       13.0237443859        3.7289753451  W2        2237            0.0000000000
      6710      2237  TIP3      H1             13.8421016386       13.2085843859        4.6679153451  W2        2237            0.0000000000
      6711      2237  TIP3      H2             14.5540516386       13.5921443859        3.3881153451  W2        2237            0.0000000000
      6712      2238  TIP3      OH2            13.4267216386       12.5908543859        6.6508853451  W2        2238            0.0000000000
      6713      2238  TIP3      H1             12.9395916386       11.8552643859        6.2796253451  W2        2238            0.0000000000
      6714      2238  TIP3      H2             13.9759916386       12.1972443859        7.3288253451  W2        2238            0.0000000000
      6715      2239  TIP3      OH2            11.8774516386        8.3806643859       11.2889153451  W2        2239            0.0000000000
      6716      2239  TIP3      H1             11.0115616386        8.2756343859       11.6831453451  W2        2239            0.0000000000
      6717      2239  TIP3      H2             12.2540416386        9.1389943859       11.7353853451  W2        2239            0.0000000000
      6718      2240  TIP3      OH2            13.1784216386        6.6370343859       -3.1968346549  W2        2240            0.0000000000
      6719      2240  TIP3      H1             14.0285616386        7.0581243859       -3.0696746549  W2        2240            0.0000000000
      6720      2240  TIP3      H2             13.1839316386        5.8970443859       -2.5896946549  W2        2240            0.0000000000
      6721      2241  TIP3      OH2            13.5729816386        4.6907743859       -1.3732646549  W2        2241            0.0000000000
      6722      2241  TIP3      H1             12.8464416386        4.2110343859       -0.9755046549  W2        2241            0.0000000000
      6723      2241  TIP3      H2             14.1543116386        4.8962443859       -0.6411046549  W2        2241            0.0000000000
      6724      2242  TIP3      OH2            13.3321016386        7.4755243859        3.5744953451  W2        2242            0.0000000000
      6725      2242  TIP3      H1             14.1655216386        7.0975243859        3.2938553451  W2        2242            0.0000000000
      6726      2242  TIP3      H2             13.4441316386        8.4186443859        3.4554053451  W2        2242            0.0000000000
      6727      2243  TIP3      OH2            11.8183316386       10.3532743859        5.8813353451  W2        2243            0.0000000000
      6728      2243  TIP3      H1             11.1708616386       10.6784243859        6.5068553451  W2        2243            0.0000000000
      6729      2243  TIP3      H2             11.3007316386        9.9130443859        5.2071653451  W2        2243            0.0000000000
      6730      2244  TIP3      OH2            13.8412916386        4.5916243859       -4.9821346549  W2        2244            0.0000000000
      6731      2244  TIP3      H1             13.3194016386        4.9480343859       -5.7010446549  W2        2244            0.0000000000
      6732      2244  TIP3      H2             13.8082116386        5.2664043859       -4.3040446549  W2        2244            0.0000000000
      6733      2245  TIP3      OH2            12.1901916386        1.8311843859       -6.4314246549  W2        2245            0.0000000000
      6734      2245  TIP3      H1             12.2866316386        2.4978843859       -7.1114546549  W2        2245            0.0000000000
      6735      2245  TIP3      H2             12.0501516386        1.0158143859       -6.9128746549  W2        2245            0.0000000000
      6736      2246  TIP3      OH2            11.3596616386        3.2114243859       -0.8103946549  W2        2246            0.0000000000
      6737      2246  TIP3      H1             11.2095416386        2.2662843859       -0.8306146549  W2        2246            0.0000000000
      6738      2246  TIP3      H2             11.0061116386        3.4925643859        0.0335153451  W2        2246            0.0000000000
      6739      2247  TIP3      OH2            -3.6050983614        5.2896443859        3.1999853451  W2        2247            0.0000000000
      6740      2247  TIP3      H1             -3.4208083614        5.2078143859        2.2642753451  W2        2247            0.0000000000
      6741      2247  TIP3      H2             -2.7558083614        5.1653443859        3.6236253451  W2        2247            0.0000000000
      6742      2248  TIP3      OH2            12.2159516386        5.1817543859        8.8284353451  W2        2248            0.0000000000
      6743      2248  TIP3      H1             12.7986816386        4.4469843859        9.0201553451  W2        2248            0.0000000000
      6744      2248  TIP3      H2             12.7798816386        5.9537843859        8.8750153451  W2        2248            0.0000000000
      6745      2249  TIP3      OH2            13.7126616386        3.0843343859        9.5129753451  W2        2249            0.0000000000
      6746      2249  TIP3      H1             12.8493316386        2.7055443859        9.3474453451  W2        2249            0.0000000000
      6747      2249  TIP3      H2             14.3170316386        2.3458143859        9.4385553451  W2        2249            0.0000000000
      6748      2250  TIP3      OH2            11.4375716386       -0.7608356141       -7.3138746549  W2        2250            0.0000000000
      6749      2250  TIP3      H1             12.0481516386       -1.1321556141       -6.6770546549  W2        2250            0.0000000000
      6750      2250  TIP3      H2             10.6007216386       -1.1821456141       -7.1178746549  W2        2250            0.0000000000
      6751      2251  TIP3      OH2            11.0701416386        0.7940043859       -2.3478846549  W2        2251            0.0000000000
      6752      2251  TIP3      H1             11.3498516386       -0.1129556141       -2.2237146549  W2        2251            0.0000000000
      6753      2251  TIP3      H2             11.8293116386        1.2281543859       -2.7369646549  W2        2251            0.0000000000
      6754      2252  TIP3      OH2            11.6819716386        1.3757443859        3.0880053451  W2        2252            0.0000000000
      6755      2252  TIP3      H1             12.6147716386        1.5877343859        3.0536053451  W2        2252            0.0000000000
      6756      2252  TIP3      H2             11.4467216386        1.4769543859        4.0103053451  W2        2252            0.0000000000
      6757      2253  TIP3      OH2            11.7111616386        2.1122743859        5.8639453451  W2        2253            0.0000000000
      6758      2253  TIP3      H1             10.8682916386        2.3803143859        6.2299253451  W2        2253            0.0000000000
      6759      2253  TIP3      H2             12.1535916386        2.9344643859        5.6530553451  W2        2253            0.0000000000
      6760      2254  TIP3      OH2            -4.0076183614        0.5601443859        9.3408653451  W2        2254            0.0000000000
      6761      2254  TIP3      H1             -3.0881283614        0.4379743859        9.5771753451  W2        2254            0.0000000000
      6762      2254  TIP3      H2             -4.4571683614       -0.1898856141        9.7302153451  W2        2254            0.0000000000
      6763      2255  TIP3      OH2            13.9943216386       -3.9077056141       11.2174453451  W2        2255            0.0000000000
      6764      2255  TIP3      H1             14.3440216386       -4.5613556141       10.6119153451  W2        2255            0.0000000000
      6765      2255  TIP3      H2             14.1412716386       -3.0702956141       10.7777053451  W2        2255            0.0000000000
      6766      2256  TIP3      OH2            11.6836216386       -1.9430656141       -2.2996846549  W2        2256            0.0000000000
      6767      2256  TIP3      H1             11.8661216386       -2.3919156141       -1.4741846549  W2        2256            0.0000000000
      6768      2256  TIP3      H2             11.0839116386       -2.5276256141       -2.7632246549  W2        2256            0.0000000000
      6769      2257  TIP3      OH2            -2.7863683614       -1.1276956141        2.2321553451  W2        2257            0.0000000000
      6770      2257  TIP3      H1             -2.3412083614       -1.9194456141        2.5341253451  W2        2257            0.0000000000
      6771      2257  TIP3      H2             -2.3200683614       -0.4111756141        2.6627153451  W2        2257            0.0000000000
      6772      2258  TIP3      OH2            -4.4823383614        1.8716043859        3.3011753451  W2        2258            0.0000000000
      6773      2258  TIP3      H1             -3.9903583614        1.6506543859        2.5103753451  W2        2258            0.0000000000
      6774      2258  TIP3      H2             -4.1202483614        2.7119443859        3.5821253451  W2        2258            0.0000000000
      6775      2259  TIP3      OH2            13.5140416386       -1.7982456141        9.5665753451  W2        2259            0.0000000000
      6776      2259  TIP3      H1             12.5966116386       -1.5275356141        9.5309253451  W2        2259            0.0000000000
      6777      2259  TIP3      H2             13.6369816386       -2.3334056141        8.7825453451  W2        2259            0.0000000000
      6778      2260  TIP3      OH2            13.5502416386       -1.8752556141       -5.7716546549  W2        2260            0.0000000000
      6779      2260  TIP3      H1             13.9625016386       -2.5966856141       -6.2468546549  W2        2260            0.0000000000
      6780      2260  TIP3      H2             14.2318916386       -1.2057956141       -5.7132246549  W2        2260            0.0000000000
      6781      2261  TIP3      OH2            -4.1686883614       -1.8704856141       -2.6445846549  W2        2261            0.0000000000
      6782      2261  TIP3      H1             -5.0938483614       -1.6618256141       -2.7740346549  W2        2261            0.0000000000
      6783      2261  TIP3      H2             -3.7146983614       -1.3864056141       -3.3343546549  W2        2261            0.0000000000
      6784      2262  TIP3      OH2            10.6020316386       13.1136843859       -0.6988446549  W2        2262            0.0000000000
      6785      2262  TIP3      H1             11.2543216386       12.7658943859       -1.3069346549  W2        2262            0.0000000000
      6786      2262  TIP3      H2             11.1124116386       13.6020043859       -0.0528746549  W2        2262            0.0000000000
      6787      2263  TIP3      OH2            -4.2051483614       -3.1325856141        5.6996653451  W2        2263            0.0000000000
      6788      2263  TIP3      H1             -4.8700983614       -3.3785556141        6.3427553451  W2        2263            0.0000000000
      6789      2263  TIP3      H2             -4.6480183614       -2.5105456141        5.1224653451  W2        2263            0.0000000000
      6790      2264  TIP3      OH2            -2.0132183614       10.0428243859        9.8442453451  W2        2264            0.0000000000
      6791      2264  TIP3      H1             -2.8339683614       10.2174743859        9.3837153451  W2        2264            0.0000000000
      6792      2264  TIP3      H2             -2.2654383614        9.9692943859       10.7646853451  W2        2264            0.0000000000
      6793      2265  TIP3      OH2             0.9410716386       11.0169443859        6.1026453451  W2        2265            0.0000000000
      6794      2265  TIP3      H1              0.5161816386       11.8267943859        5.8201053451  W2        2265            0.0000000000
      6795      2265  TIP3      H2              1.8453516386       11.1023543859        5.8006253451  W2        2265            0.0000000000
      6796      2266  TIP3      OH2             5.2522116386       12.4159443859        9.0620153451  W2        2266            0.0000000000
      6797      2266  TIP3      H1              5.4369616386       12.0825543859        9.9400453451  W2        2266            0.0000000000
      6798      2266  TIP3      H2              6.0986616386       12.7258043859        8.7399353451  W2        2266            0.0000000000
      6799      2267  TIP3      OH2             7.5972516386       13.7018343859        8.3061553451  W2        2267            0.0000000000
      6800      2267  TIP3      H1              8.2741416386       13.0690643859        8.0660753451  W2        2267            0.0000000000
      6801      2267  TIP3      H2              7.9191316386       14.1028843859        9.1134853451  W2        2267            0.0000000000
      6802      2268  TIP3      OH2            12.5146316386       -3.7086156141        7.3856553451  W2        2268            0.0000000000
      6803      2268  TIP3      H1             11.7019816386       -3.3835856141        6.9981253451  W2        2268            0.0000000000
      6804      2268  TIP3      H2             12.7474816386       -4.4687656141        6.8525653451  W2        2268            0.0000000000
      6805      2269  TIP3      OH2            -1.6572583614       14.2733343859        6.1501753451  W2        2269            0.0000000000
      6806      2269  TIP3      H1             -2.3776183614       14.7134343859        5.6989453451  W2        2269            0.0000000000
      6807      2269  TIP3      H2             -2.0228583614       14.0228043859        6.9985753451  W2        2269            0.0000000000
      6808      2270  TIP3      OH2             0.8100016386       13.8737243859        5.1798953451  W2        2270            0.0000000000
      6809      2270  TIP3      H1             -0.0547783614       13.9455743859        5.5839053451  W2        2270            0.0000000000
      6810      2270  TIP3      H2              0.7549016386       14.4204543859        4.3961453451  W2        2270            0.0000000000
      6811      2271  TIP3      OH2             5.5205616386       13.7616143859        4.3554953451  W2        2271            0.0000000000
      6812      2271  TIP3      H1              5.0639616386       14.2905843859        3.7013353451  W2        2271            0.0000000000
      6813      2271  TIP3      H2              5.6833616386       14.3647543859        5.0807253451  W2        2271            0.0000000000
      6814      2272  TIP3      OH2             7.8481916386       12.6395743859        5.3005253451  W2        2272            0.0000000000
      6815      2272  TIP3      H1              6.9435616386       12.8045943859        5.0347353451  W2        2272            0.0000000000
      6816      2272  TIP3      H2              8.2770516386       13.4927943859        5.2348653451  W2        2272            0.0000000000
      6817      2273  TIP3      OH2            10.4523816386       14.2094843859        5.5953053451  W2        2273            0.0000000000
      6818      2273  TIP3      H1             10.2705816386       15.1253743859        5.3847953451  W2        2273            0.0000000000
      6819      2273  TIP3      H2             10.6291616386       13.7991943859        4.7487653451  W2        2273            0.0000000000
      6820      2274  TIP3      OH2            -2.2424483614       12.8965843859        3.0603553451  W2        2274            0.0000000000
      6821      2274  TIP3      H1             -2.2608483614       12.4710943859        3.9175853451  W2        2274            0.0000000000
      6822      2274  TIP3      H2             -1.4376583614       12.5780843859        2.6515753451  W2        2274            0.0000000000
      6823      2275  TIP3      OH2            -0.1011383614       11.6064543859        1.7153453451  W2        2275            0.0000000000
      6824      2275  TIP3      H1             -0.3200683614       10.6901943859        1.8849453451  W2        2275            0.0000000000
      6825      2275  TIP3      H2              0.7230816386       11.7464943859        2.1814853451  W2        2275            0.0000000000
      6826      2276  TIP3      OH2             2.4361116386       12.0763843859        2.5641453451  W2        2276            0.0000000000
      6827      2276  TIP3      H1              2.6486816386       11.1882843859        2.2772353451  W2        2276            0.0000000000
      6828      2276  TIP3      H2              2.5006216386       12.0421543859        3.5185453451  W2        2276            0.0000000000
      6829      2277  TIP3      OH2             5.9444816386       -2.2595556141        1.7084753451  W2        2277            0.0000000000
      6830      2277  TIP3      H1              5.2701616386       -2.8889956141        1.9640553451  W2        2277            0.0000000000
      6831      2277  TIP3      H2              6.5084016386       -2.7436656141        1.1052653451  W2        2277            0.0000000000
      6832      2278  TIP3      OH2            11.0872016386       -4.1521556141        1.8211853451  W2        2278            0.0000000000
      6833      2278  TIP3      H1             11.6909616386       -3.6046156141        1.3192853451  W2        2278            0.0000000000
      6834      2278  TIP3      H2             10.2174016386       -3.8331156141        1.5805953451  W2        2278            0.0000000000
      6835      2279  TIP3      OH2            12.8142416386       -3.0132856141        0.1542753451  W2        2279            0.0000000000
      6836      2279  TIP3      H1             13.4259916386       -3.5277156141       -0.3723646549  W2        2279            0.0000000000
      6837      2279  TIP3      H2             13.1965816386       -2.1360756141        0.1777153451  W2        2279            0.0000000000
      6838      2280  TIP3      OH2            -1.7287683614       -3.6255256141       -0.4695346549  W2        2280            0.0000000000
      6839      2280  TIP3      H1             -2.5057883614       -3.8600356141       -0.9769446549  W2        2280            0.0000000000
      6840      2280  TIP3      H2             -1.1984083614       -4.4223156141       -0.4607346549  W2        2280            0.0000000000
      6841      2281  TIP3      OH2            -2.8924283614       -3.8277156141       -4.6659246549  W2        2281            0.0000000000
      6842      2281  TIP3      H1             -2.4533583614       -3.2166656141       -5.2575746549  W2        2281            0.0000000000
      6843      2281  TIP3      H2             -3.5261883614       -3.2893056141       -4.1919246549  W2        2281            0.0000000000
      6844      2282  TIP3      OH2             2.8504916386       -3.6988156141       -0.6562246549  W2        2282            0.0000000000
      6845      2282  TIP3      H1              3.7248316386       -3.3103856141       -0.6857946549  W2        2282            0.0000000000
      6846      2282  TIP3      H2              2.7145716386       -3.9140356141        0.2664953451  W2        2282            0.0000000000
      6847      2283  TIP3      OH2             8.4073316386       -3.6688356141        0.9929453451  W2        2283            0.0000000000
      6848      2283  TIP3      H1              8.4834916386       -3.5736756141        0.0435453451  W2        2283            0.0000000000
      6849      2283  TIP3      H2              8.1322516386       -4.5765456141        1.1218553451  W2        2283            0.0000000000
      6850      2284  TIP3      OH2             9.7605916386       -3.6430556141       -3.3145546549  W2        2284            0.0000000000
      6851      2284  TIP3      H1              9.0577016386       -3.0281356141       -3.5244146549  W2        2284            0.0000000000
      6852      2284  TIP3      H2              9.3157316386       -4.4803856141       -3.1834646549  W2        2284            0.0000000000
      6853      2285  TIP3      OH2            -2.9914783614       12.1205043859       -3.7684146549  W2        2285            0.0000000000
      6854      2285  TIP3      H1             -3.6764883614       12.0823943859       -4.4359046549  W2        2285            0.0000000000
      6855      2285  TIP3      H2             -2.9877583614       13.0332643859       -3.4802046549  W2        2285            0.0000000000
      6856      2286  TIP3      OH2            -1.0315183614       -1.9115656141       -6.2235146549  W2        2286            0.0000000000
      6857      2286  TIP3      H1             -0.5401783614       -2.5413256141       -6.7509646549  W2        2286            0.0000000000
      6858      2286  TIP3      H2             -0.4078883614       -1.6156256141       -5.5603946549  W2        2286            0.0000000000
      6859      2287  TIP3      OH2             3.9944916386       -1.6184156141       -3.7664646549  W2        2287            0.0000000000
      6860      2287  TIP3      H1              4.1726216386       -2.2650956141       -3.0836046549  W2        2287            0.0000000000
      6861      2287  TIP3      H2              3.9411116386       -0.7846456141       -3.2993546549  W2        2287            0.0000000000
      6862      2288  TIP3      OH2             5.8728716386       13.3299943859       -5.3707946549  W2        2288            0.0000000000
      6863      2288  TIP3      H1              6.7388916386       13.6967343859       -5.5489746549  W2        2288            0.0000000000
      6864      2288  TIP3      H2              5.6261516386       12.8907943859       -6.1847146549  W2        2288            0.0000000000
      6865      2289  TIP3      OH2            12.5818316386       12.8930243859       -2.6916846549  W2        2289            0.0000000000
      6866      2289  TIP3      H1             12.3875416386       12.1452343859       -3.2567246549  W2        2289            0.0000000000
      6867      2289  TIP3      H2             12.5428416386       13.6510343859       -3.2748946549  W2        2289            0.0000000000
      6868      2290  TIP3      OH2            -1.7709683614       -3.1113356141        9.0480853451  W2        2290            0.0000000000
      6869      2290  TIP3      H1             -2.1371483614       -3.8770756141        9.4905553451  W2        2290            0.0000000000
      6870      2290  TIP3      H2             -0.8581183614       -3.0823156141        9.3345953451  W2        2290            0.0000000000
      6871      2291  TIP3      OH2             0.2021116386       -3.7608956141       10.5837953451  W2        2291            0.0000000000
      6872      2291  TIP3      H1              1.1004716386       -4.0348756141       10.3991353451  W2        2291            0.0000000000
      6873      2291  TIP3      H2             -0.1845783614       -4.5032956141       11.0480553451  W2        2291            0.0000000000
      6874      2292  TIP3      OH2            -1.1733583614       13.0405843859       -6.7432046549  W2        2292            0.0000000000
      6875      2292  TIP3      H1             -1.4408983614       13.3268743859       -5.8698946549  W2        2292            0.0000000000
      6876      2292  TIP3      H2             -0.4020983614       12.4945043859       -6.5909546549  W2        2292            0.0000000000
      6877      2293  TIP3      OH2             8.6233416386       -4.4283656141       10.7660753451  W2        2293            0.0000000000
      6878      2293  TIP3      H1              8.7000616386       -4.8542956141       11.6198453451  W2        2293            0.0000000000
      6879      2293  TIP3      H2              9.5170016386       -4.4148956141       10.4234253451  W2        2293            0.0000000000
      6880      2294  TIP3      OH2            11.7994516386       11.6442643859        9.4584953451  W2        2294            0.0000000000
      6881      2294  TIP3      H1             11.0176416386       11.4580643859        8.9385553451  W2        2294            0.0000000000
      6882      2294  TIP3      H2             11.7274416386       12.5736943859        9.6757453451  W2        2294            0.0000000000
      6883      2295  TIP3      OH2            17.5071216386        4.3999843859        4.5010253451  W2        2295            0.0000000000
      6884      2295  TIP3      H1             17.5483316386        3.7743143859        5.2242653451  W2        2295            0.0000000000
      6885      2295  TIP3      H2             18.2098916386        5.0238443859        4.6830653451  W2        2295            0.0000000000
      6886      2296  TIP3      OH2            18.4304316386        8.8498743859        3.0359353451  W2        2296            0.0000000000
      6887      2296  TIP3      H1             18.0609516386        8.0479243859        2.6663653451  W2        2296            0.0000000000
      6888      2296  TIP3      H2             19.3715416386        8.6813643859        3.0822753451  W2        2296            0.0000000000
      6889      2297  TIP3      OH2            15.0404816386        2.5101343859       -1.5711846549  W2        2297            0.0000000000
      6890      2297  TIP3      H1             14.5928216386        3.3560043859       -1.5895346549  W2        2297            0.0000000000
      6891      2297  TIP3      H2             14.4796016386        1.9305543859       -2.0866746549  W2        2297            0.0000000000
      6892      2298  TIP3      OH2            15.7510916386        4.6720943859        0.5546153451  W2        2298            0.0000000000
      6893      2298  TIP3      H1             15.9644416386        3.9022543859        1.0819153451  W2        2298            0.0000000000
      6894      2298  TIP3      H2             16.4888516386        4.7617643859       -0.0486246549  W2        2298            0.0000000000
      6895      2299  TIP3      OH2            19.8235916386       -0.2862056141        0.9140953451  W2        2299            0.0000000000
      6896      2299  TIP3      H1             19.8667016386        0.5736443859        0.4957253451  W2        2299            0.0000000000
      6897      2299  TIP3      H2             19.3660016386       -0.8387356141        0.2804153451  W2        2299            0.0000000000
      6898      2300  TIP3      OH2            16.4437416386        2.1103743859        1.6762353451  W2        2300            0.0000000000
      6899      2300  TIP3      H1             17.0974016386        1.5605443859        2.1082453451  W2        2300            0.0000000000
      6900      2300  TIP3      H2             16.4676716386        1.8362743859        0.7594353451  W2        2300            0.0000000000
      6901      2301  TIP3      OH2            21.6001916386        3.6605043859        0.8913853451  W2        2301            0.0000000000
      6902      2301  TIP3      H1             22.2162916386        3.1340443859        1.4007853451  W2        2301            0.0000000000
      6903      2301  TIP3      H2             21.0140716386        3.0203743859        0.4877453451  W2        2301            0.0000000000
      6904      2302  TIP3      OH2            18.6337816386       -1.3683656141        4.9881753451  W2        2302            0.0000000000
      6905      2302  TIP3      H1             18.4149516386       -0.8383056141        4.2217753451  W2        2302            0.0000000000
      6906      2302  TIP3      H2             17.9658716386       -1.1418156141        5.6353153451  W2        2302            0.0000000000
      6907      2303  TIP3      OH2            21.2029216386        6.3072043859        5.2755453451  W2        2303            0.0000000000
      6908      2303  TIP3      H1             20.4628316386        6.9053543859        5.3790653451  W2        2303            0.0000000000
      6909      2303  TIP3      H2             21.9168716386        6.8611643859        4.9599053451  W2        2303            0.0000000000
      6910      2304  TIP3      OH2            18.2275116386        0.5238143859        2.9403953451  W2        2304            0.0000000000
      6911      2304  TIP3      H1             18.8411416386        1.1565743859        3.3136353451  W2        2304            0.0000000000
      6912      2304  TIP3      H2             18.7395816386        0.0513143859        2.2840853451  W2        2304            0.0000000000
      6913      2305  TIP3      OH2            19.6103516386        8.2715043859        6.0626953451  W2        2305            0.0000000000
      6914      2305  TIP3      H1             19.6051116386        9.1508543859        5.6846253451  W2        2305            0.0000000000
      6915      2305  TIP3      H2             18.7567616386        8.1879143859        6.4876853451  W2        2305            0.0000000000
      6916      2306  TIP3      OH2            15.7314416386        7.9422943859       -3.1553746549  W2        2306            0.0000000000
      6917      2306  TIP3      H1             15.4595316386        8.1713943859       -4.0440846549  W2        2306            0.0000000000
      6918      2306  TIP3      H2             15.7770116386        8.7801743859       -2.6948446549  W2        2306            0.0000000000
      6919      2307  TIP3      OH2            22.6602516386       -4.0628556141        2.4406653451  W2        2307            0.0000000000
      6920      2307  TIP3      H1             22.5426716386       -5.0112556141        2.3864953451  W2        2307            0.0000000000
      6921      2307  TIP3      H2             21.8052616386       -3.7302456141        2.7137753451  W2        2307            0.0000000000
      6922      2308  TIP3      OH2            19.9778816386        5.6146543859       -0.2246646549  W2        2308            0.0000000000
      6923      2308  TIP3      H1             19.6474016386        5.2439943859       -1.0429646549  W2        2308            0.0000000000
      6924      2308  TIP3      H2             20.5662916386        4.9440543859        0.1221653451  W2        2308            0.0000000000
      6925      2309  TIP3      OH2            21.3446316386        9.0427143859        2.4565553451  W2        2309            0.0000000000
      6926      2309  TIP3      H1             21.2497616386        8.4640243859        1.7000153451  W2        2309            0.0000000000
      6927      2309  TIP3      H2             22.0739916386        8.6712843859        2.9528353451  W2        2309            0.0000000000
      6928      2310  TIP3      OH2            20.3444316386        4.3832143859        3.4088353451  W2        2310            0.0000000000
      6929      2310  TIP3      H1             20.9096816386        4.5046343859        2.6459553451  W2        2310            0.0000000000
      6930      2310  TIP3      H2             20.6633216386        5.0207143859        4.0476853451  W2        2310            0.0000000000
      6931      2311  TIP3      OH2            21.2245016386        8.7824843859        8.1260253451  W2        2311            0.0000000000
      6932      2311  TIP3      H1             20.9132516386        9.5648043859        8.5813453451  W2        2311            0.0000000000
      6933      2311  TIP3      H2             20.5745216386        8.6293943859        7.4402253451  W2        2311            0.0000000000
      6934      2312  TIP3      OH2            18.1444916386        4.9805943859        7.3545953451  W2        2312            0.0000000000
      6935      2312  TIP3      H1             18.2148116386        5.6312743859        8.0530953451  W2        2312            0.0000000000
      6936      2312  TIP3      H2             17.2537116386        5.0833443859        7.0196853451  W2        2312            0.0000000000
      6937      2313  TIP3      OH2            19.4640916386       10.8539843859        8.8894053451  W2        2313            0.0000000000
      6938      2313  TIP3      H1             19.4716216386       10.7179543859        7.9419553451  W2        2313            0.0000000000
      6939      2313  TIP3      H2             18.5481316386       10.7367943859        9.1414053451  W2        2313            0.0000000000
      6940      2314  TIP3      OH2            18.9681516386        4.6840843859       -2.6353846549  W2        2314            0.0000000000
      6941      2314  TIP3      H1             18.6762816386        5.4522543859       -3.1262546549  W2        2314            0.0000000000
      6942      2314  TIP3      H2             18.2936716386        4.0247043859       -2.7982446549  W2        2314            0.0000000000
      6943      2315  TIP3      OH2            15.0611616386        7.0470043859        6.1795953451  W2        2315            0.0000000000
      6944      2315  TIP3      H1             14.5600016386        7.0189443859        5.3645653451  W2        2315            0.0000000000
      6945      2315  TIP3      H2             15.0665316386        6.1413243859        6.4893253451  W2        2315            0.0000000000
      6946      2316  TIP3      OH2            14.8114316386        9.8273843859        3.0636153451  W2        2316            0.0000000000
      6947      2316  TIP3      H1             15.7574916386        9.6830843859        3.0445653451  W2        2316            0.0000000000
      6948      2316  TIP3      H2             14.6990616386       10.6116643859        3.6007353451  W2        2316            0.0000000000
      6949      2317  TIP3      OH2            18.0556416386       12.6283443859       -0.7909146549  W2        2317            0.0000000000
      6950      2317  TIP3      H1             18.2076816386       12.2803843859        0.0877353451  W2        2317            0.0000000000
      6951      2317  TIP3      H2             17.2046816386       12.2720743859       -1.0461946549  W2        2317            0.0000000000
      6952      2318  TIP3      OH2            17.3102116386        8.3705443859        7.2228753451  W2        2318            0.0000000000
      6953      2318  TIP3      H1             17.5263416386        8.0091043859        8.0824553451  W2        2318            0.0000000000
      6954      2318  TIP3      H2             16.4546816386        7.9959243859        7.0132253451  W2        2318            0.0000000000
      6955      2319  TIP3      OH2            19.9290116386       -3.1594056141        3.2182953451  W2        2319            0.0000000000
      6956      2319  TIP3      H1             19.0673816386       -3.2465856141        2.8105853451  W2        2319            0.0000000000
      6957      2319  TIP3      H2             19.9065816386       -2.3033956141        3.6460553451  W2        2319            0.0000000000
      6958      2320  TIP3      OH2            20.0200216386        1.8060443859        4.3133153451  W2        2320            0.0000000000
      6959      2320  TIP3      H1             19.3782316386        1.7657743859        5.0223253451  W2        2320            0.0000000000
      6960      2320  TIP3      H2             20.0572216386        2.7325143859        4.0756153451  W2        2320            0.0000000000
      6961      2321  TIP3      OH2            20.0169316386        2.0270543859       -0.7746846549  W2        2321            0.0000000000
      6962      2321  TIP3      H1             19.1242216386        1.6866643859       -0.8333046549  W2        2321            0.0000000000
      6963      2321  TIP3      H2             20.4675916386        1.6501443859       -1.5303646549  W2        2321            0.0000000000
      6964      2322  TIP3      OH2            17.7700716386        2.1263943859        6.1805153451  W2        2322            0.0000000000
      6965      2322  TIP3      H1             17.7320116386        2.5265543859        7.0492253451  W2        2322            0.0000000000
      6966      2322  TIP3      H2             17.2791816386        1.3096343859        6.2708053451  W2        2322            0.0000000000
      6967      2323  TIP3      OH2            21.1358116386       -0.4993756141       -7.0208846549  W2        2323            0.0000000000
      6968      2323  TIP3      H1             20.7048816386       -0.9443656141       -6.2911446549  W2        2323            0.0000000000
      6969      2323  TIP3      H2             20.4176816386       -0.1277456141       -7.5331346549  W2        2323            0.0000000000
      6970      2324  TIP3      OH2            14.3781516386       -0.7574256141        0.0309853451  W2        2324            0.0000000000
      6971      2324  TIP3      H1             15.0089216386       -0.7862156141        0.7503753451  W2        2324            0.0000000000
      6972      2324  TIP3      H2             14.8275816386       -1.1825556141       -0.6994246549  W2        2324            0.0000000000
      6973      2325  TIP3      OH2            15.6523616386       -0.0112256141       -4.5449746549  W2        2325            0.0000000000
      6974      2325  TIP3      H1             16.1265316386        0.5797643859       -5.1298846549  W2        2325            0.0000000000
      6975      2325  TIP3      H2             14.9350016386        0.5190643859       -4.1979646549  W2        2325            0.0000000000
      6976      2326  TIP3      OH2            22.5984616386       -0.5451956141        0.3117253451  W2        2326            0.0000000000
      6977      2326  TIP3      H1             21.6875716386       -0.4885156141        0.6003253451  W2        2326            0.0000000000
      6978      2326  TIP3      H2             23.1037516386       -0.6056456141        1.1224453451  W2        2326            0.0000000000
      6979      2327  TIP3      OH2            17.4268016386        1.0834343859       -0.8615146549  W2        2327            0.0000000000
      6980      2327  TIP3      H1             16.5376016386        1.1829843859       -1.2015546549  W2        2327            0.0000000000
      6981      2327  TIP3      H2             17.7232916386        0.2417343859       -1.2077246549  W2        2327            0.0000000000
      6982      2328  TIP3      OH2            21.0799816386        1.0836943859       -3.2050546549  W2        2328            0.0000000000
      6983      2328  TIP3      H1             22.0115316386        1.2126943859       -3.0267446549  W2        2328            0.0000000000
      6984      2328  TIP3      H2             20.8650116386        1.7531243859       -3.8545846549  W2        2328            0.0000000000
      6985      2329  TIP3      OH2            19.7540016386        2.2779143859       -5.6384446549  W2        2329            0.0000000000
      6986      2329  TIP3      H1             19.2115116386        1.8982943859       -6.3296846549  W2        2329            0.0000000000
      6987      2329  TIP3      H2             20.5874916386        2.4723843859       -6.0670346549  W2        2329            0.0000000000
      6988      2330  TIP3      OH2            17.8891416386        6.8351043859        9.4607153451  W2        2330            0.0000000000
      6989      2330  TIP3      H1             18.6213816386        7.0896943859       10.0221653451  W2        2330            0.0000000000
      6990      2330  TIP3      H2             17.1090116386        7.0396443859        9.9762553451  W2        2330            0.0000000000
      6991      2331  TIP3      OH2            18.9204016386       -1.6212856141       -1.3828346549  W2        2331            0.0000000000
      6992      2331  TIP3      H1             18.6033516386       -2.5237556141       -1.4182946549  W2        2331            0.0000000000
      6993      2331  TIP3      H2             19.7018116386       -1.6195456141       -1.9356746549  W2        2331            0.0000000000
      6994      2332  TIP3      OH2            22.5450216386        0.6307143859        4.6127253451  W2        2332            0.0000000000
      6995      2332  TIP3      H1             21.7095516386        1.0846643859        4.7229653451  W2        2332            0.0000000000
      6996      2332  TIP3      H2             23.0690816386        0.9065643859        5.3647153451  W2        2332            0.0000000000
      6997      2333  TIP3      OH2            23.0892816386        6.8434843859       -3.7026346549  W2        2333            0.0000000000
      6998      2333  TIP3      H1             22.3443816386        6.3360143859       -4.0248446549  W2        2333            0.0000000000
      6999      2333  TIP3      H2             22.9550016386        6.8922843859       -2.7561546549  W2        2333            0.0000000000
      7000      2334  TIP3      OH2            18.2141116386        6.1384843859        2.0671553451  W2        2334            0.0000000000
      7001      2334  TIP3      H1             18.9588316386        6.1360543859        1.4658053451  W2        2334            0.0000000000
      7002      2334  TIP3      H2             18.2917716386        5.3148643859        2.5486653451  W2        2334            0.0000000000
      7003      2335  TIP3      OH2            15.2220816386        4.5991743859        7.3820053451  W2        2335            0.0000000000
      7004      2335  TIP3      H1             15.4449416386        4.1811343859        8.2137553451  W2        2335            0.0000000000
      7005      2335  TIP3      H2             14.6200916386        3.9866743859        6.9592853451  W2        2335            0.0000000000
      7006      2336  TIP3      OH2            22.2385716386        4.1161643859        9.5949753451  W2        2336            0.0000000000
      7007      2336  TIP3      H1             21.9426516386        3.9504643859        8.6998853451  W2        2336            0.0000000000
      7008      2336  TIP3      H2             23.1700916386        3.8961943859        9.5843653451  W2        2336            0.0000000000
      7009      2337  TIP3      OH2            20.5890516386        9.6563043859       -0.5286946549  W2        2337            0.0000000000
      7010      2337  TIP3      H1             21.1162716386       10.4297443859       -0.7288146549  W2        2337            0.0000000000
      7011      2337  TIP3      H2             19.7089016386        9.8812243859       -0.8302946549  W2        2337            0.0000000000
      7012      2338  TIP3      OH2            16.3438216386        4.5187143859       -5.9414546549  W2        2338            0.0000000000
      7013      2338  TIP3      H1             16.9598116386        5.1454343859       -5.5619746549  W2        2338            0.0000000000
      7014      2338  TIP3      H2             15.4820816386        4.8346943859       -5.6698046549  W2        2338            0.0000000000
      7015      2339  TIP3      OH2            22.0162816386        7.3192943859       -0.9522646549  W2        2339            0.0000000000
      7016      2339  TIP3      H1             21.7752816386        8.2447343859       -0.9107346549  W2        2339            0.0000000000
      7017      2339  TIP3      H2             21.2756416386        6.8604243859       -0.5558746549  W2        2339            0.0000000000
      7018      2340  TIP3      OH2            22.5309416386       11.4686543859        5.3628453451  W2        2340            0.0000000000
      7019      2340  TIP3      H1             22.8934116386       12.3232143859        5.1292853451  W2        2340            0.0000000000
      7020      2340  TIP3      H2             23.0624616386       11.1768143859        6.1034753451  W2        2340            0.0000000000
      7021      2341  TIP3      OH2            20.6993616386       12.3410543859       -1.4070446549  W2        2341            0.0000000000
      7022      2341  TIP3      H1             19.7494116386       12.4467943859       -1.3557146549  W2        2341            0.0000000000
      7023      2341  TIP3      H2             21.0511716386       13.1617943859       -1.0622946549  W2        2341            0.0000000000
      7024      2342  TIP3      OH2            16.8560316386       -0.6475556141        6.9401453451  W2        2342            0.0000000000
      7025      2342  TIP3      H1             15.9632616386       -0.3090156141        6.8725453451  W2        2342            0.0000000000
      7026      2342  TIP3      H2             16.7573116386       -1.5029456141        7.3582253451  W2        2342            0.0000000000
      7027      2343  TIP3      OH2            16.5072316386       11.1568843859        5.3750853451  W2        2343            0.0000000000
      7028      2343  TIP3      H1             16.7242616386       10.2251243859        5.3440553451  W2        2343            0.0000000000
      7029      2343  TIP3      H2             16.7535816386       11.4313843859        6.2583653451  W2        2343            0.0000000000
      7030      2344  TIP3      OH2            22.3686916386        9.6083843859       -7.4156946549  W2        2344            0.0000000000
      7031      2344  TIP3      H1             22.6076716386        8.8601943859       -7.9628046549  W2        2344            0.0000000000
      7032      2344  TIP3      H2             22.0998216386        9.2205543859       -6.5829146549  W2        2344            0.0000000000
      7033      2345  TIP3      OH2            21.3057516386        9.1787643859       -4.9594346549  W2        2345            0.0000000000
      7034      2345  TIP3      H1             21.4525516386        8.6587443859       -4.1693446549  W2        2345            0.0000000000
      7035      2345  TIP3      H2             21.3029216386       10.0855243859       -4.6528446549  W2        2345            0.0000000000
      7036      2346  TIP3      OH2            17.7588616386        6.4310943859       -4.4488946549  W2        2346            0.0000000000
      7037      2346  TIP3      H1             17.0727916386        6.7833443859       -3.8819246549  W2        2346            0.0000000000
      7038      2346  TIP3      H2             18.2816516386        7.1940543859       -4.6954646549  W2        2346            0.0000000000
      7039      2347  TIP3      OH2            21.3817816386       11.9198443859       -4.2283246549  W2        2347            0.0000000000
      7040      2347  TIP3      H1             21.5426516386       12.7195943859       -4.7290646549  W2        2347            0.0000000000
      7041      2347  TIP3      H2             21.1845616386       12.2264443859       -3.3432646549  W2        2347            0.0000000000
      7042      2348  TIP3      OH2            20.1162216386       -1.3822356141       -4.6125646549  W2        2348            0.0000000000
      7043      2348  TIP3      H1             20.0327016386       -0.4939256141       -4.2659246549  W2        2348            0.0000000000
      7044      2348  TIP3      H2             21.0062516386       -1.6475656141       -4.3808846549  W2        2348            0.0000000000
      7045      2349  TIP3      OH2            18.3747516386        9.0449843859       -5.5521146549  W2        2349            0.0000000000
      7046      2349  TIP3      H1             18.9669016386        9.7444643859       -5.2758746549  W2        2349            0.0000000000
      7047      2349  TIP3      H2             18.8340516386        8.6119343859       -6.2716546549  W2        2349            0.0000000000
      7048      2350  TIP3      OH2            16.6906716386        1.7092843859       -6.4361746549  W2        2350            0.0000000000
      7049      2350  TIP3      H1             16.6459316386        2.6485943859       -6.2574746549  W2        2350            0.0000000000
      7050      2350  TIP3      H2             15.8029916386        1.4737743859       -6.7059646549  W2        2350            0.0000000000
      7051      2351  TIP3      OH2            17.4988716386       -3.5090556141        2.2369253451  W2        2351            0.0000000000
      7052      2351  TIP3      H1             17.2698516386       -3.4498056141        1.3094253451  W2        2351            0.0000000000
      7053      2351  TIP3      H2             17.0562116386       -4.3005056141        2.5433353451  W2        2351            0.0000000000
      7054      2352  TIP3      OH2            16.4292016386       10.4316543859       -1.6024946549  W2        2352            0.0000000000
      7055      2352  TIP3      H1             15.5970616386       10.9039243859       -1.5753546549  W2        2352            0.0000000000
      7056      2352  TIP3      H2             16.9750316386       10.9414143859       -2.2011846549  W2        2352            0.0000000000
      7057      2353  TIP3      OH2            15.7175716386       13.0440243859        9.7273053451  W2        2353            0.0000000000
      7058      2353  TIP3      H1             16.2577916386       12.8274243859       10.4872253451  W2        2353            0.0000000000
      7059      2353  TIP3      H2             15.2363716386       12.2386243859        9.5375553451  W2        2353            0.0000000000
      7060      2354  TIP3      OH2            20.3149116386       11.9634643859       11.3477253451  W2        2354            0.0000000000
      7061      2354  TIP3      H1             21.0826316386       11.5045443859       11.6886453451  W2        2354            0.0000000000
      7062      2354  TIP3      H2             20.2935316386       11.7374443859       10.4178453451  W2        2354            0.0000000000
      7063      2355  TIP3      OH2            15.6245216386        6.8544343859       10.6817353451  W2        2355            0.0000000000
      7064      2355  TIP3      H1             15.7685716386        5.9525043859       10.3954053451  W2        2355            0.0000000000
      7065      2355  TIP3      H2             14.8522616386        7.1406443859       10.1939653451  W2        2355            0.0000000000
      7066      2356  TIP3      OH2            19.9658916386        7.1980043859       -7.1858046549  W2        2356            0.0000000000
      7067      2356  TIP3      H1             20.0303016386        6.4039643859       -6.6551646549  W2        2356            0.0000000000
      7068      2356  TIP3      H2             20.6188116386        7.0792843859       -7.8756046549  W2        2356            0.0000000000
      7069      2357  TIP3      OH2            22.2801316386        6.8242443859       10.1143753451  W2        2357            0.0000000000
      7070      2357  TIP3      H1             21.9515116386        7.0950543859        9.2571153451  W2        2357            0.0000000000
      7071      2357  TIP3      H2             22.4319516386        5.8832243859       10.0268753451  W2        2357            0.0000000000
      7072      2358  TIP3      OH2            16.4571716386        4.0547643859       10.1016653451  W2        2358            0.0000000000
      7073      2358  TIP3      H1             16.8652916386        3.1974243859        9.9807253451  W2        2358            0.0000000000
      7074      2358  TIP3      H2             16.1969316386        4.0688943859       11.0226953451  W2        2358            0.0000000000
      7075      2359  TIP3      OH2            21.1152716386        5.1706243859       -4.8800046549  W2        2359            0.0000000000
      7076      2359  TIP3      H1             20.6554716386        4.6864543859       -4.1941546549  W2        2359            0.0000000000
      7077      2359  TIP3      H2             21.3701416386        4.5021643859       -5.5159546549  W2        2359            0.0000000000
      7078      2360  TIP3      OH2            20.4042016386        3.0633343859        7.4759553451  W2        2360            0.0000000000
      7079      2360  TIP3      H1             19.7858116386        3.7379943859        7.7564253451  W2        2360            0.0000000000
      7080      2360  TIP3      H2             20.7483216386        3.3847243859        6.6425753451  W2        2360            0.0000000000
      7081      2361  TIP3      OH2            22.1863116386        3.4138043859       -6.6176846549  W2        2361            0.0000000000
      7082      2361  TIP3      H1             22.0058116386        3.2589243859       -7.5448546549  W2        2361            0.0000000000
      7083      2361  TIP3      H2             23.1363616386        3.5216743859       -6.5728946549  W2        2361            0.0000000000
      7084      2362  TIP3      OH2            20.7435716386        0.4184143859        8.5582653451  W2        2362            0.0000000000
      7085      2362  TIP3      H1             20.8936616386       -0.3104556141        7.9562353451  W2        2362            0.0000000000
      7086      2362  TIP3      H2             20.7458116386        1.1955843859        7.9994853451  W2        2362            0.0000000000
      7087      2363  TIP3      OH2            21.1561416386       -1.2120056141        6.0510053451  W2        2363            0.0000000000
      7088      2363  TIP3      H1             21.6918916386       -0.7603356141        5.3989353451  W2        2363            0.0000000000
      7089      2363  TIP3      H2             20.3041016386       -1.3200256141        5.6284153451  W2        2363            0.0000000000
      7090      2364  TIP3      OH2            22.7379816386        4.2276143859        6.2905253451  W2        2364            0.0000000000
      7091      2364  TIP3      H1             23.4884616386        4.0713643859        5.7173053451  W2        2364            0.0000000000
      7092      2364  TIP3      H2             22.3988116386        5.0792743859        6.0150753451  W2        2364            0.0000000000
      7093      2365  TIP3      OH2            19.2222016386        1.6167643859       10.4698253451  W2        2365            0.0000000000
      7094      2365  TIP3      H1             18.4551016386        1.0842443859       10.2595853451  W2        2365            0.0000000000
      7095      2365  TIP3      H2             19.9011016386        1.3068043859        9.8704553451  W2        2365            0.0000000000
      7096      2366  TIP3      OH2            21.9616916386       -3.7554356141        6.4823653451  W2        2366            0.0000000000
      7097      2366  TIP3      H1             21.8636516386       -2.8091156141        6.3769853451  W2        2366            0.0000000000
      7098      2366  TIP3      H2             21.2193116386       -4.1280556141        6.0067153451  W2        2366            0.0000000000
      7099      2367  TIP3      OH2            23.2257416386        0.5661043859       10.0462053451  W2        2367            0.0000000000
      7100      2367  TIP3      H1             22.9902816386        0.3467743859       10.9476953451  W2        2367            0.0000000000
      7101      2367  TIP3      H2             22.4424316386        0.3592243859        9.5364553451  W2        2367            0.0000000000
      7102      2368  TIP3      OH2            17.4024816386       -0.4628556141       10.1742953451  W2        2368            0.0000000000
      7103      2368  TIP3      H1             17.6142216386       -1.1692456141        9.5640453451  W2        2368            0.0000000000
      7104      2368  TIP3      H2             17.2912316386       -0.9002556141       11.0184153451  W2        2368            0.0000000000
      7105      2369  TIP3      OH2            22.1835016386       -4.4616956141        9.1536453451  W2        2369            0.0000000000
      7106      2369  TIP3      H1             22.8953416386       -5.1014756141        9.1395553451  W2        2369            0.0000000000
      7107      2369  TIP3      H2             22.0825416386       -4.1948656141        8.2399553451  W2        2369            0.0000000000
      7108      2370  TIP3      OH2            22.5372516386       -2.7788556141       11.2072753451  W2        2370            0.0000000000
      7109      2370  TIP3      H1             22.4054716386       -3.2544756141       10.3871253451  W2        2370            0.0000000000
      7110      2370  TIP3      H2             21.9379916386       -2.0344956141       11.1519853451  W2        2370            0.0000000000
      7111      2371  TIP3      OH2            22.0834816386       14.1041743859       -5.6163246549  W2        2371            0.0000000000
      7112      2371  TIP3      H1             23.0165516386       14.2620443859       -5.4724846549  W2        2371            0.0000000000
      7113      2371  TIP3      H2             21.8193616386       14.7794743859       -6.2411746549  W2        2371            0.0000000000
      7114      2372  TIP3      OH2            15.6519716386        8.7405543859       -6.1335146549  W2        2372            0.0000000000
      7115      2372  TIP3      H1             16.5658916386        8.8194443859       -5.8601246549  W2        2372            0.0000000000
      7116      2372  TIP3      H2             15.6592816386        8.0535143859       -6.7999546549  W2        2372            0.0000000000
      7117      2373  TIP3      OH2            14.3010316386       14.1334043859       -1.0561246549  W2        2373            0.0000000000
      7118      2373  TIP3      H1             13.6537416386       13.6715743859       -1.5890046549  W2        2373            0.0000000000
      7119      2373  TIP3      H2             14.6554916386       13.4617343859       -0.4735046549  W2        2373            0.0000000000
      7120      2374  TIP3      OH2            15.1709516386       12.2141043859        0.7484953451  W2        2374            0.0000000000
      7121      2374  TIP3      H1             14.8366316386       11.3338343859        0.9205153451  W2        2374            0.0000000000
      7122      2374  TIP3      H2             15.3931916386       12.5596043859        1.6130553451  W2        2374            0.0000000000
      7123      2375  TIP3      OH2            15.2509016386        5.2896443859        3.1999853451  W2        2375            0.0000000000
      7124      2375  TIP3      H1             15.4351916386        5.2078143859        2.2642753451  W2        2375            0.0000000000
      7125      2375  TIP3      H2             16.1001916386        5.1653443859        3.6236253451  W2        2375            0.0000000000
      7126      2376  TIP3      OH2            14.8483816386        0.5601443859        9.3408653451  W2        2376            0.0000000000
      7127      2376  TIP3      H1             15.7678716386        0.4379743859        9.5771753451  W2        2376            0.0000000000
      7128      2376  TIP3      H2             14.3988316386       -0.1898856141        9.7302153451  W2        2376            0.0000000000
      7129      2377  TIP3      OH2            16.0696316386       -1.1276956141        2.2321553451  W2        2377            0.0000000000
      7130      2377  TIP3      H1             16.5147916386       -1.9194456141        2.5341253451  W2        2377            0.0000000000
      7131      2377  TIP3      H2             16.5359316386       -0.4111756141        2.6627153451  W2        2377            0.0000000000
      7132      2378  TIP3      OH2            14.3736616386        1.8716043859        3.3011753451  W2        2378            0.0000000000
      7133      2378  TIP3      H1             14.8656416386        1.6506543859        2.5103753451  W2        2378            0.0000000000
      7134      2378  TIP3      H2             14.7357516386        2.7119443859        3.5821253451  W2        2378            0.0000000000
      7135      2379  TIP3      OH2            14.6873116386       -1.8704856141       -2.6445846549  W2        2379            0.0000000000
      7136      2379  TIP3      H1             13.7621516386       -1.6618256141       -2.7740346549  W2        2379            0.0000000000
      7137      2379  TIP3      H2             15.1413016386       -1.3864056141       -3.3343546549  W2        2379            0.0000000000
      7138      2380  TIP3      OH2            14.6508516386       -3.1325856141        5.6996653451  W2        2380            0.0000000000
      7139      2380  TIP3      H1             13.9859016386       -3.3785556141        6.3427553451  W2        2380            0.0000000000
      7140      2380  TIP3      H2             14.2079816386       -2.5105456141        5.1224653451  W2        2380            0.0000000000
      7141      2381  TIP3      OH2            16.8427816386       10.0428243859        9.8442453451  W2        2381            0.0000000000
      7142      2381  TIP3      H1             16.0220316386       10.2174743859        9.3837153451  W2        2381            0.0000000000
      7143      2381  TIP3      H2             16.5905616386        9.9692943859       10.7646853451  W2        2381            0.0000000000
      7144      2382  TIP3      OH2            19.7970716386       11.0169443859        6.1026453451  W2        2382            0.0000000000
      7145      2382  TIP3      H1             19.3721816386       11.8267943859        5.8201053451  W2        2382            0.0000000000
      7146      2382  TIP3      H2             20.7013516386       11.1023543859        5.8006253451  W2        2382            0.0000000000
      7147      2383  TIP3      OH2            17.1987416386       14.2733343859        6.1501753451  W2        2383            0.0000000000
      7148      2383  TIP3      H1             16.4783816386       14.7134343859        5.6989453451  W2        2383            0.0000000000
      7149      2383  TIP3      H2             16.8331416386       14.0228043859        6.9985753451  W2        2383            0.0000000000
      7150      2384  TIP3      OH2            19.6660016386       13.8737243859        5.1798953451  W2        2384            0.0000000000
      7151      2384  TIP3      H1             18.8012216386       13.9455743859        5.5839053451  W2        2384            0.0000000000
      7152      2384  TIP3      H2             19.6109016386       14.4204543859        4.3961453451  W2        2384            0.0000000000
      7153      2385  TIP3      OH2            16.6135516386       12.8965843859        3.0603553451  W2        2385            0.0000000000
      7154      2385  TIP3      H1             16.5951516386       12.4710943859        3.9175853451  W2        2385            0.0000000000
      7155      2385  TIP3      H2             17.4183416386       12.5780843859        2.6515753451  W2        2385            0.0000000000
      7156      2386  TIP3      OH2            18.7548616386       11.6064543859        1.7153453451  W2        2386            0.0000000000
      7157      2386  TIP3      H1             18.5359316386       10.6901943859        1.8849453451  W2        2386            0.0000000000
      7158      2386  TIP3      H2             19.5790816386       11.7464943859        2.1814853451  W2        2386            0.0000000000
      7159      2387  TIP3      OH2            21.2921116386       12.0763843859        2.5641453451  W2        2387            0.0000000000
      7160      2387  TIP3      H1             21.5046816386       11.1882843859        2.2772353451  W2        2387            0.0000000000
      7161      2387  TIP3      H2             21.3566216386       12.0421543859        3.5185453451  W2        2387            0.0000000000
      7162      2388  TIP3      OH2            17.1272316386       -3.6255256141       -0.4695346549  W2        2388            0.0000000000
      7163      2388  TIP3      H1             16.3502116386       -3.8600356141       -0.9769446549  W2        2388            0.0000000000
      7164      2388  TIP3      H2             17.6575916386       -4.4223156141       -0.4607346549  W2        2388            0.0000000000
      7165      2389  TIP3      OH2            15.9635716386       -3.8277156141       -4.6659246549  W2        2389            0.0000000000
      7166      2389  TIP3      H1             16.4026416386       -3.2166656141       -5.2575746549  W2        2389            0.0000000000
      7167      2389  TIP3      H2             15.3298116386       -3.2893056141       -4.1919246549  W2        2389            0.0000000000
      7168      2390  TIP3      OH2            21.7064916386       -3.6988156141       -0.6562246549  W2        2390            0.0000000000
      7169      2390  TIP3      H1             22.5808316386       -3.3103856141       -0.6857946549  W2        2390            0.0000000000
      7170      2390  TIP3      H2             21.5705716386       -3.9140356141        0.2664953451  W2        2390            0.0000000000
      7171      2391  TIP3      OH2            15.8645216386       12.1205043859       -3.7684146549  W2        2391            0.0000000000
      7172      2391  TIP3      H1             15.1795116386       12.0823943859       -4.4359046549  W2        2391            0.0000000000
      7173      2391  TIP3      H2             15.8682416386       13.0332643859       -3.4802046549  W2        2391            0.0000000000
      7174      2392  TIP3      OH2            17.8244816386       -1.9115656141       -6.2235146549  W2        2392            0.0000000000
      7175      2392  TIP3      H1             18.3158216386       -2.5413256141       -6.7509646549  W2        2392            0.0000000000
      7176      2392  TIP3      H2             18.4481116386       -1.6156256141       -5.5603946549  W2        2392            0.0000000000
      7177      2393  TIP3      OH2            22.8504916386       -1.6184156141       -3.7664646549  W2        2393            0.0000000000
      7178      2393  TIP3      H1             23.0286216386       -2.2650956141       -3.0836046549  W2        2393            0.0000000000
      7179      2393  TIP3      H2             22.7971116386       -0.7846456141       -3.2993546549  W2        2393            0.0000000000
      7180      2394  TIP3      OH2            17.0850316386       -3.1113356141        9.0480853451  W2        2394            0.0000000000
      7181      2394  TIP3      H1             16.7188516386       -3.8770756141        9.4905553451  W2        2394            0.0000000000
      7182      2394  TIP3      H2             17.9978816386       -3.0823156141        9.3345953451  W2        2394            0.0000000000
      7183      2395  TIP3      OH2            19.0581116386       -3.7608956141       10.5837953451  W2        2395            0.0000000000
      7184      2395  TIP3      H1             19.9564716386       -4.0348756141       10.3991353451  W2        2395            0.0000000000
      7185      2395  TIP3      H2             18.6714216386       -4.5032956141       11.0480553451  W2        2395            0.0000000000
      7186      2396  TIP3      OH2            17.6826416386       13.0405843859       -6.7432046549  W2        2396            0.0000000000
      7187      2396  TIP3      H1             17.4151016386       13.3268743859       -5.8698946549  W2        2396            0.0000000000
      7188      2396  TIP3      H2             18.4539016386       12.4945043859       -6.5909546549  W2        2396            0.0000000000
      7189      2397  TIP3      OH2           -20.2048783614       23.2559843859        4.5010253451  W2        2397            0.0000000000
      7190      2397  TIP3      H1            -20.1636683614       22.6303143859        5.2242653451  W2        2397            0.0000000000
      7191      2397  TIP3      H2            -19.5021083614       23.8798443859        4.6830653451  W2        2397            0.0000000000
      7192      2398  TIP3      OH2           -22.6715183614       21.3661343859       -1.5711846549  W2        2398            0.0000000000
      7193      2398  TIP3      H1            -23.1191783614       22.2120043859       -1.5895346549  W2        2398            0.0000000000
      7194      2398  TIP3      H2            -23.2323983614       20.7865543859       -2.0866746549  W2        2398            0.0000000000
      7195      2399  TIP3      OH2            -5.5209583614       17.6754443859        4.1747553451  W2        2399            0.0000000000
      7196      2399  TIP3      H1             -5.4717383614       18.2855643859        4.9106653451  W2        2399            0.0000000000
      7197      2399  TIP3      H2             -5.0954483614       18.1365343859        3.4518653451  W2        2399            0.0000000000
      7198      2400  TIP3      OH2           -11.0432383614       20.4681543859        3.6416153451  W2        2400            0.0000000000
      7199      2400  TIP3      H1            -10.9006483614       19.5218543859        3.6617753451  W2        2400            0.0000000000
      7200      2400  TIP3      H2            -11.1493383614       20.6751343859        2.7131053451  W2        2400            0.0000000000
      7201      2401  TIP3      OH2           -17.8884083614       18.5697943859        0.9140953451  W2        2401            0.0000000000
      7202      2401  TIP3      H1            -17.8452983614       19.4296443859        0.4957253451  W2        2401            0.0000000000
      7203      2401  TIP3      H2            -18.3459983614       18.0172643859        0.2804153451  W2        2401            0.0000000000
      7204      2402  TIP3      OH2           -10.1661383614       18.7003543859       -0.6850746549  W2        2402            0.0000000000
      7205      2402  TIP3      H1             -9.5197083614       18.3716743859       -0.0603146549  W2        2402            0.0000000000
      7206      2402  TIP3      H2             -9.6561983614       19.2182543859       -1.3079346549  W2        2402            0.0000000000
      7207      2403  TIP3      OH2           -21.2682583614       20.9663743859        1.6762353451  W2        2403            0.0000000000
      7208      2403  TIP3      H1            -20.6145983614       20.4165443859        2.1082453451  W2        2403            0.0000000000
      7209      2403  TIP3      H2            -21.2443283614       20.6922743859        0.7594353451  W2        2403            0.0000000000
      7210      2404  TIP3      OH2           -16.1118083614       22.5165043859        0.8913853451  W2        2404            0.0000000000
      7211      2404  TIP3      H1            -15.4957083614       21.9900443859        1.4007853451  W2        2404            0.0000000000
      7212      2404  TIP3      H2            -16.6979283614       21.8763743859        0.4877453451  W2        2404            0.0000000000
      7213      2405  TIP3      OH2            -5.1294983614       19.1533643859        6.4107353451  W2        2405            0.0000000000
      7214      2405  TIP3      H1             -5.8180383614       19.8114343859        6.3153953451  W2        2405            0.0000000000
      7215      2405  TIP3      H2             -5.1140383614       18.9561543859        7.3472753451  W2        2405            0.0000000000
      7216      2406  TIP3      OH2           -19.0782183614       17.4876343859        4.9881753451  W2        2406            0.0000000000
      7217      2406  TIP3      H1            -19.2970483614       18.0176943859        4.2217753451  W2        2406            0.0000000000
      7218      2406  TIP3      H2            -19.7461283614       17.7141843859        5.6353153451  W2        2406            0.0000000000
      7219      2407  TIP3      OH2            -8.4022983614       17.9912843859        1.2955153451  W2        2407            0.0000000000
      7220      2407  TIP3      H1             -8.6174983614       17.2256243859        1.8281153451  W2        2407            0.0000000000
      7221      2407  TIP3      H2             -7.7465583614       18.4637443859        1.8083653451  W2        2407            0.0000000000
      7222      2408  TIP3      OH2           -19.4844883614       19.3798143859        2.9403953451  W2        2408            0.0000000000
      7223      2408  TIP3      H1            -18.8708583614       20.0125743859        3.3136353451  W2        2408            0.0000000000
      7224      2408  TIP3      H2            -18.9724183614       18.9073143859        2.2840853451  W2        2408            0.0000000000
      7225      2409  TIP3      OH2            -8.0548883614       16.7064143859        4.9748653451  W2        2409            0.0000000000
      7226      2409  TIP3      H1             -8.7909683614       17.3171243859        4.9369953451  W2        2409            0.0000000000
      7227      2409  TIP3      H2             -7.3714883614       17.1213143859        4.4485053451  W2        2409            0.0000000000
      7228      2410  TIP3      OH2           -15.0517483614       14.7931443859        2.4406653451  W2        2410            0.0000000000
      7229      2410  TIP3      H1            -15.1693283614       13.8447443859        2.3864953451  W2        2410            0.0000000000
      7230      2410  TIP3      H2            -15.9067383614       15.1257543859        2.7137753451  W2        2410            0.0000000000
      7231      2411  TIP3      OH2           -12.7313383614       22.0881343859       -6.0202546549  W2        2411            0.0000000000
      7232      2411  TIP3      H1            -12.0303483614       22.1108243859       -5.3688546549  W2        2411            0.0000000000
      7233      2411  TIP3      H2            -12.4290483614       21.4601043859       -6.6763246549  W2        2411            0.0000000000
      7234      2412  TIP3      OH2            -5.4158683614       23.0085543859        5.2346853451  W2        2412            0.0000000000
      7235      2412  TIP3      H1             -6.0684583614       23.7031143859        5.3237753451  W2        2412            0.0000000000
      7236      2412  TIP3      H2             -4.9508383614       23.2186443859        4.4248453451  W2        2412            0.0000000000
      7237      2413  TIP3      OH2            -9.4821383614       22.0142943859        6.9605353451  W2        2413            0.0000000000
      7238      2413  TIP3      H1             -9.4022283614       22.7777343859        7.5323853451  W2        2413            0.0000000000
      7239      2413  TIP3      H2            -10.0833683614       22.2935343859        6.2700453451  W2        2413            0.0000000000
      7240      2414  TIP3      OH2           -17.3675683614       23.2392143859        3.4088353451  W2        2414            0.0000000000
      7241      2414  TIP3      H1            -16.8023183614       23.3606343859        2.6459553451  W2        2414            0.0000000000
      7242      2414  TIP3      H2            -17.0486783614       23.8767143859        4.0476853451  W2        2414            0.0000000000
      7243      2415  TIP3      OH2           -10.5085383614       23.0023243859       -4.4220446549  W2        2415            0.0000000000
      7244      2415  TIP3      H1             -9.9289883614       23.1523543859       -3.6751546549  W2        2415            0.0000000000
      7245      2415  TIP3      H2            -10.0945383614       23.4730643859       -5.1454046549  W2        2415            0.0000000000
      7246      2416  TIP3      OH2            -6.8096983614       14.7523643859       -4.6090746549  W2        2416            0.0000000000
      7247      2416  TIP3      H1             -7.7096283614       14.8912643859       -4.3140146549  W2        2416            0.0000000000
      7248      2416  TIP3      H2             -6.5578583614       15.5838243859       -5.0109046549  W2        2416            0.0000000000
      7249      2417  TIP3      OH2            -7.5507383614       20.8426043859        9.2262053451  W2        2417            0.0000000000
      7250      2417  TIP3      H1             -7.9580583614       21.3231643859        8.5055353451  W2        2417            0.0000000000
      7251      2417  TIP3      H2             -7.5101683614       19.9372043859        8.9182853451  W2        2417            0.0000000000
      7252      2418  TIP3      OH2           -17.7829883614       15.6965943859        3.2182953451  W2        2418            0.0000000000
      7253      2418  TIP3      H1            -18.6446183614       15.6094143859        2.8105853451  W2        2418            0.0000000000
      7254      2418  TIP3      H2            -17.8054183614       16.5526043859        3.6460553451  W2        2418            0.0000000000
      7255      2419  TIP3      OH2           -13.1202083614       15.4186343859        6.5929953451  W2        2419            0.0000000000
      7256      2419  TIP3      H1            -12.6998983614       15.0033443859        7.3460553451  W2        2419            0.0000000000
      7257      2419  TIP3      H2            -14.0532483614       15.2399643859        6.7101953451  W2        2419            0.0000000000
      7258      2420  TIP3      OH2            -9.7937183614       19.1741543859        7.4464453451  W2        2420            0.0000000000
      7259      2420  TIP3      H1            -10.3077683614       19.0483743859        8.2440453451  W2        2420            0.0000000000
      7260      2420  TIP3      H2             -9.9492483614       20.0864643859        7.2020653451  W2        2420            0.0000000000
      7261      2421  TIP3      OH2           -13.4584783614       17.9109743859       -6.1219246549  W2        2421            0.0000000000
      7262      2421  TIP3      H1            -13.7119983614       17.9301343859       -5.1991146549  W2        2421            0.0000000000
      7263      2421  TIP3      H2            -13.7152683614       17.0395143859       -6.4233046549  W2        2421            0.0000000000
      7264      2422  TIP3      OH2           -17.6919783614       20.6620443859        4.3133153451  W2        2422            0.0000000000
      7265      2422  TIP3      H1            -18.3337683614       20.6217743859        5.0223253451  W2        2422            0.0000000000
      7266      2422  TIP3      H2            -17.6547783614       21.5885143859        4.0756153451  W2        2422            0.0000000000
      7267      2423  TIP3      OH2           -17.6950683614       20.8830543859       -0.7746846549  W2        2423            0.0000000000
      7268      2423  TIP3      H1            -18.5877783614       20.5426643859       -0.8333046549  W2        2423            0.0000000000
      7269      2423  TIP3      H2            -17.2444083614       20.5061443859       -1.5303646549  W2        2423            0.0000000000
      7270      2424  TIP3      OH2           -12.1595183614       21.2990843859       -1.9576046549  W2        2424            0.0000000000
      7271      2424  TIP3      H1            -12.5684883614       22.1139443859       -2.2491246549  W2        2424            0.0000000000
      7272      2424  TIP3      H2            -11.4388983614       21.1590943859       -2.5718946549  W2        2424            0.0000000000
      7273      2425  TIP3      OH2           -13.0573583614       21.4747243859        9.5304653451  W2        2425            0.0000000000
      7274      2425  TIP3      H1            -13.6199783614       20.7698843859        9.8512453451  W2        2425            0.0000000000
      7275      2425  TIP3      H2            -12.2310183614       21.3539143859        9.9982253451  W2        2425            0.0000000000
      7276      2426  TIP3      OH2           -11.1547483614       20.7451243859        0.8563653451  W2        2426            0.0000000000
      7277      2426  TIP3      H1            -11.3502983614       21.3508043859        0.1414253451  W2        2426            0.0000000000
      7278      2426  TIP3      H2            -10.9734883614       19.9116443859        0.4219953451  W2        2426            0.0000000000
      7279      2427  TIP3      OH2           -19.9419283614       20.9823943859        6.1805153451  W2        2427            0.0000000000
      7280      2427  TIP3      H1            -19.9799883614       21.3825543859        7.0492253451  W2        2427            0.0000000000
      7281      2427  TIP3      H2            -20.4328183614       20.1656343859        6.2708053451  W2        2427            0.0000000000
      7282      2428  TIP3      OH2           -16.5761883614       18.3566243859       -7.0208846549  W2        2428            0.0000000000
      7283      2428  TIP3      H1            -17.0071183614       17.9116343859       -6.2911446549  W2        2428            0.0000000000
      7284      2428  TIP3      H2            -17.2943183614       18.7282543859       -7.5331346549  W2        2428            0.0000000000
      7285      2429  TIP3      OH2           -23.3338483614       18.0985743859        0.0309853451  W2        2429            0.0000000000
      7286      2429  TIP3      H1            -22.7030783614       18.0697843859        0.7503753451  W2        2429            0.0000000000
      7287      2429  TIP3      H2            -22.8844183614       17.6734443859       -0.6994246549  W2        2429            0.0000000000
      7288      2430  TIP3      OH2           -22.0596383614       18.8447743859       -4.5449746549  W2        2430            0.0000000000
      7289      2430  TIP3      H1            -21.5854683614       19.4357643859       -5.1298846549  W2        2430            0.0000000000
      7290      2430  TIP3      H2            -22.7769983614       19.3750643859       -4.1979646549  W2        2430            0.0000000000
      7291      2431  TIP3      OH2           -11.8908283614       22.3832543859        5.5276053451  W2        2431            0.0000000000
      7292      2431  TIP3      H1            -11.5673483614       21.7522243859        4.8846553451  W2        2431            0.0000000000
      7293      2431  TIP3      H2            -12.3308983614       21.8484743859        6.1883453451  W2        2431            0.0000000000
      7294      2432  TIP3      OH2           -15.1135383614       18.3108043859        0.3117253451  W2        2432            0.0000000000
      7295      2432  TIP3      H1            -16.0244283614       18.3674843859        0.6003253451  W2        2432            0.0000000000
      7296      2432  TIP3      H2            -14.6082483614       18.2503543859        1.1224453451  W2        2432            0.0000000000
      7297      2433  TIP3      OH2           -20.2851983614       19.9394343859       -0.8615146549  W2        2433            0.0000000000
      7298      2433  TIP3      H1            -21.1743983614       20.0389843859       -1.2015546549  W2        2433            0.0000000000
      7299      2433  TIP3      H2            -19.9887083614       19.0977343859       -1.2077246549  W2        2433            0.0000000000
      7300      2434  TIP3      OH2           -16.6320183614       19.9396943859       -3.2050546549  W2        2434            0.0000000000
      7301      2434  TIP3      H1            -15.7004683614       20.0686943859       -3.0267446549  W2        2434            0.0000000000
      7302      2434  TIP3      H2            -16.8469883614       20.6091243859       -3.8545846549  W2        2434            0.0000000000
      7303      2435  TIP3      OH2           -10.7083483614       17.5454343859        3.5759053451  W2        2435            0.0000000000
      7304      2435  TIP3      H1            -11.3851883614       17.6767443859        4.2398753451  W2        2435            0.0000000000
      7305      2435  TIP3      H2            -11.1938583614       17.3903843859        2.7656753451  W2        2435            0.0000000000
      7306      2436  TIP3      OH2           -17.9579983614       21.1339143859       -5.6384446549  W2        2436            0.0000000000
      7307      2436  TIP3      H1            -18.5004883614       20.7542943859       -6.3296846549  W2        2436            0.0000000000
      7308      2436  TIP3      H2            -17.1245083614       21.3283843859       -6.0670346549  W2        2436            0.0000000000
      7309      2437  TIP3      OH2           -13.7935683614       21.0981043859        2.1986853451  W2        2437            0.0000000000
      7310      2437  TIP3      H1            -13.2292283614       20.5517643859        1.6516453451  W2        2437            0.0000000000
      7311      2437  TIP3      H2            -13.9412283614       20.5762943859        2.9874453451  W2        2437            0.0000000000
      7312      2438  TIP3      OH2           -18.7915983614       17.2347143859       -1.3828346549  W2        2438            0.0000000000
      7313      2438  TIP3      H1            -19.1086483614       16.3322443859       -1.4182946549  W2        2438            0.0000000000
      7314      2438  TIP3      H2            -18.0101883614       17.2364543859       -1.9356746549  W2        2438            0.0000000000
      7315      2439  TIP3      OH2           -15.1669783614       19.4867143859        4.6127253451  W2        2439            0.0000000000
      7316      2439  TIP3      H1            -16.0024483614       19.9406643859        4.7229653451  W2        2439            0.0000000000
      7317      2439  TIP3      H2            -14.6429183614       19.7625643859        5.3647153451  W2        2439            0.0000000000
      7318      2440  TIP3      OH2           -10.7250383614       18.5134743859       -5.5033746549  W2        2440            0.0000000000
      7319      2440  TIP3      H1            -11.6636183614       18.6250343859       -5.6544946549  W2        2440            0.0000000000
      7320      2440  TIP3      H2            -10.4278283614       19.3701643859       -5.1968046549  W2        2440            0.0000000000
      7321      2441  TIP3      OH2           -10.0066883614       20.3807443859       -3.8426346549  W2        2441            0.0000000000
      7322      2441  TIP3      H1             -9.1147883614       20.2432443859       -3.5235146549  W2        2441            0.0000000000
      7323      2441  TIP3      H2             -9.9503283614       21.1713543859       -4.3792846549  W2        2441            0.0000000000
      7324      2442  TIP3      OH2           -15.4734283614       22.9721643859        9.5949753451  W2        2442            0.0000000000
      7325      2442  TIP3      H1            -15.7693483614       22.8064643859        8.6998853451  W2        2442            0.0000000000
      7326      2442  TIP3      H2            -14.5419083614       22.7521943859        9.5843653451  W2        2442            0.0000000000
      7327      2443  TIP3      OH2            -5.1218183614       20.5901543859       -4.1479646549  W2        2443            0.0000000000
      7328      2443  TIP3      H1             -5.6761883614       20.1939543859       -4.8202146549  W2        2443            0.0000000000
      7329      2443  TIP3      H2             -5.0214583614       21.5006743859       -4.4256346549  W2        2443            0.0000000000
      7330      2444  TIP3      OH2           -21.3681783614       23.3747143859       -5.9414546549  W2        2444            0.0000000000
      7331      2444  TIP3      H1            -20.7521883614       24.0014343859       -5.5619746549  W2        2444            0.0000000000
      7332      2444  TIP3      H2            -22.2299183614       23.6906943859       -5.6698046549  W2        2444            0.0000000000
      7333      2445  TIP3      OH2           -20.8559683614       18.2084443859        6.9401453451  W2        2445            0.0000000000
      7334      2445  TIP3      H1            -21.7487383614       18.5469843859        6.8725453451  W2        2445            0.0000000000
      7335      2445  TIP3      H2            -20.9546883614       17.3530543859        7.3582253451  W2        2445            0.0000000000
      7336      2446  TIP3      OH2           -12.1216283614       17.9494743859        5.8300053451  W2        2446            0.0000000000
      7337      2446  TIP3      H1            -11.4228383614       18.0233443859        6.4799753451  W2        2446            0.0000000000
      7338      2446  TIP3      H2            -12.5024883614       17.0849743859        5.9842953451  W2        2446            0.0000000000
      7339      2447  TIP3      OH2           -11.3371383614       17.6016443859       -3.0727646549  W2        2447            0.0000000000
      7340      2447  TIP3      H1            -11.1173083614       18.0731843859       -3.8762246549  W2        2447            0.0000000000
      7341      2447  TIP3      H2            -10.7787383614       17.9959043859       -2.4027046549  W2        2447            0.0000000000
      7342      2448  TIP3      OH2           -14.1371483614       19.3295243859       -2.2379246549  W2        2448            0.0000000000
      7343      2448  TIP3      H1            -13.3248883614       19.8338443859       -2.1917546549  W2        2448            0.0000000000
      7344      2448  TIP3      H2            -14.3818483614       19.1844943859       -1.3239646549  W2        2448            0.0000000000
      7345      2449  TIP3      OH2           -13.6015083614       20.3157943859        6.9467353451  W2        2449            0.0000000000
      7346      2449  TIP3      H1            -13.4824783614       20.8893343859        7.7037753451  W2        2449            0.0000000000
      7347      2449  TIP3      H2            -12.9460483614       19.6277343859        7.0615153451  W2        2449            0.0000000000
      7348      2450  TIP3      OH2           -13.2534783614       16.4108243859       -1.2998146549  W2        2450            0.0000000000
      7349      2450  TIP3      H1            -13.6001283614       17.0278843859       -0.6553846549  W2        2450            0.0000000000
      7350      2450  TIP3      H2            -12.5947883614       16.9113943859       -1.7812646549  W2        2450            0.0000000000
      7351      2451  TIP3      OH2           -17.5957783614       17.4737643859       -4.6125646549  W2        2451            0.0000000000
      7352      2451  TIP3      H1            -17.6792983614       18.3620743859       -4.2659246549  W2        2451            0.0000000000
      7353      2451  TIP3      H2            -16.7057483614       17.2084343859       -4.3808846549  W2        2451            0.0000000000
      7354      2452  TIP3      OH2            -7.3969283614       18.2228243859        7.7817053451  W2        2452            0.0000000000
      7355      2452  TIP3      H1             -8.3133483614       18.4849943859        7.6940753451  W2        2452            0.0000000000
      7356      2452  TIP3      H2             -7.0614283614       18.2197243859        6.8852353451  W2        2452            0.0000000000
      7357      2453  TIP3      OH2            -8.7948283614       21.9729243859        1.8774353451  W2        2453            0.0000000000
      7358      2453  TIP3      H1             -9.5923883614       21.5579443859        1.5489353451  W2        2453            0.0000000000
      7359      2453  TIP3      H2             -8.3497183614       21.2822943859        2.3684853451  W2        2453            0.0000000000
      7360      2454  TIP3      OH2           -21.0213283614       20.5652843859       -6.4361746549  W2        2454            0.0000000000
      7361      2454  TIP3      H1            -21.0660683614       21.5045943859       -6.2574746549  W2        2454            0.0000000000
      7362      2454  TIP3      H2            -21.9090083614       20.3297743859       -6.7059646549  W2        2454            0.0000000000
      7363      2455  TIP3      OH2           -20.2131283614       15.3469443859        2.2369253451  W2        2455            0.0000000000
      7364      2455  TIP3      H1            -20.4421483614       15.4061943859        1.3094253451  W2        2455            0.0000000000
      7365      2455  TIP3      H2            -20.6557883614       14.5554943859        2.5433353451  W2        2455            0.0000000000
      7366      2456  TIP3      OH2           -21.2548283614       22.9107643859       10.1016653451  W2        2456            0.0000000000
      7367      2456  TIP3      H1            -20.8467083614       22.0534243859        9.9807253451  W2        2456            0.0000000000
      7368      2456  TIP3      H2            -21.5150683614       22.9248943859       11.0226953451  W2        2456            0.0000000000
      7369      2457  TIP3      OH2           -17.3077983614       21.9193343859        7.4759553451  W2        2457            0.0000000000
      7370      2457  TIP3      H1            -17.9261883614       22.5939943859        7.7564253451  W2        2457            0.0000000000
      7371      2457  TIP3      H2            -16.9636783614       22.2407243859        6.6425753451  W2        2457            0.0000000000
      7372      2458  TIP3      OH2           -15.5256883614       22.2698043859       -6.6176846549  W2        2458            0.0000000000
      7373      2458  TIP3      H1            -15.7061883614       22.1149243859       -7.5448546549  W2        2458            0.0000000000
      7374      2458  TIP3      H2            -14.5756383614       22.3776743859       -6.5728946549  W2        2458            0.0000000000
      7375      2459  TIP3      OH2           -16.9684283614       19.2744143859        8.5582653451  W2        2459            0.0000000000
      7376      2459  TIP3      H1            -16.8183383614       18.5455443859        7.9562353451  W2        2459            0.0000000000
      7377      2459  TIP3      H2            -16.9661883614       20.0515843859        7.9994853451  W2        2459            0.0000000000
      7378      2460  TIP3      OH2           -16.5558583614       17.6439943859        6.0510053451  W2        2460            0.0000000000
      7379      2460  TIP3      H1            -16.0201083614       18.0956643859        5.3989353451  W2        2460            0.0000000000
      7380      2460  TIP3      H2            -17.4078983614       17.5359743859        5.6284153451  W2        2460            0.0000000000
      7381      2461  TIP3      OH2           -14.9740183614       23.0836143859        6.2905253451  W2        2461            0.0000000000
      7382      2461  TIP3      H1            -14.2235383614       22.9273643859        5.7173053451  W2        2461            0.0000000000
      7383      2461  TIP3      H2            -15.3131883614       23.9352743859        6.0150753451  W2        2461            0.0000000000
      7384      2462  TIP3      OH2           -10.5583983614       20.8987943859       11.3190553451  W2        2462            0.0000000000
      7385      2462  TIP3      H1            -10.3662683614       19.9677343859       11.2075053451  W2        2462            0.0000000000
      7386      2462  TIP3      H2             -9.7007683614       21.3237443859       11.3085953451  W2        2462            0.0000000000
      7387      2463  TIP3      OH2           -18.4897983614       20.4727643859       10.4698253451  W2        2463            0.0000000000
      7388      2463  TIP3      H1            -19.2568983614       19.9402443859       10.2595853451  W2        2463            0.0000000000
      7389      2463  TIP3      H2            -17.8108983614       20.1628043859        9.8704553451  W2        2463            0.0000000000
      7390      2464  TIP3      OH2           -15.7503083614       15.1005643859        6.4823653451  W2        2464            0.0000000000
      7391      2464  TIP3      H1            -15.8483483614       16.0468843859        6.3769853451  W2        2464            0.0000000000
      7392      2464  TIP3      H2            -16.4926883614       14.7279443859        6.0067153451  W2        2464            0.0000000000
      7393      2465  TIP3      OH2           -14.4862583614       19.4221043859       10.0462053451  W2        2465            0.0000000000
      7394      2465  TIP3      H1            -14.7217183614       19.2027743859       10.9476953451  W2        2465            0.0000000000
      7395      2465  TIP3      H2            -15.2695683614       19.2152243859        9.5364553451  W2        2465            0.0000000000
      7396      2466  TIP3      OH2           -11.7705983614       18.5494543859        9.1215553451  W2        2466            0.0000000000
      7397      2466  TIP3      H1            -12.7180583614       18.5814243859        9.2538853451  W2        2466            0.0000000000
      7398      2466  TIP3      H2            -11.4579283614       17.9241643859        9.7753753451  W2        2466            0.0000000000
      7399      2467  TIP3      OH2           -10.1364483614       17.1835643859       11.1267453451  W2        2467            0.0000000000
      7400      2467  TIP3      H1            -10.2332683614       16.2312943859       11.1209353451  W2        2467            0.0000000000
      7401      2467  TIP3      H2            -10.4581383614       17.4522443859       11.9872953451  W2        2467            0.0000000000
      7402      2468  TIP3      OH2           -20.3095183614       18.3931443859       10.1742953451  W2        2468            0.0000000000
      7403      2468  TIP3      H1            -20.0977783614       17.6867543859        9.5640453451  W2        2468            0.0000000000
      7404      2468  TIP3      H2            -20.4207683614       17.9557443859       11.0184153451  W2        2468            0.0000000000
      7405      2469  TIP3      OH2           -15.5284983614       14.3943043859        9.1536453451  W2        2469            0.0000000000
      7406      2469  TIP3      H1            -14.8166583614       13.7545243859        9.1395553451  W2        2469            0.0000000000
      7407      2469  TIP3      H2            -15.6294583614       14.6611343859        8.2399553451  W2        2469            0.0000000000
      7408      2470  TIP3      OH2           -15.1747483614       16.0771443859       11.2072753451  W2        2470            0.0000000000
      7409      2470  TIP3      H1            -15.3065283614       15.6015243859       10.3871253451  W2        2470            0.0000000000
      7410      2470  TIP3      H2            -15.7740083614       16.8215043859       11.1519853451  W2        2470            0.0000000000
      7411      2471  TIP3      OH2            -6.6658083614       20.6871843859       -6.4314246549  W2        2471            0.0000000000
      7412      2471  TIP3      H1             -6.5693683614       21.3538843859       -7.1114546549  W2        2471            0.0000000000
      7413      2471  TIP3      H2             -6.8058483614       19.8718143859       -6.9128746549  W2        2471            0.0000000000
      7414      2472  TIP3      OH2            -7.4963383614       22.0674243859       -0.8103946549  W2        2472            0.0000000000
      7415      2472  TIP3      H1             -7.6464583614       21.1222843859       -0.8306146549  W2        2472            0.0000000000
      7416      2472  TIP3      H2             -7.8498883614       22.3485643859        0.0335153451  W2        2472            0.0000000000
      7417      2473  TIP3      OH2            -5.1433383614       21.9403343859        9.5129753451  W2        2473            0.0000000000
      7418      2473  TIP3      H1             -6.0066683614       21.5615443859        9.3474453451  W2        2473            0.0000000000
      7419      2473  TIP3      H2             -4.5389683614       21.2018143859        9.4385553451  W2        2473            0.0000000000
      7420      2474  TIP3      OH2            -7.4184283614       18.0951643859       -7.3138746549  W2        2474            0.0000000000
      7421      2474  TIP3      H1             -6.8078483614       17.7238443859       -6.6770546549  W2        2474            0.0000000000
      7422      2474  TIP3      H2             -8.2552783614       17.6738543859       -7.1178746549  W2        2474            0.0000000000
      7423      2475  TIP3      OH2            -7.7858583614       19.6500043859       -2.3478846549  W2        2475            0.0000000000
      7424      2475  TIP3      H1             -7.5061483614       18.7430443859       -2.2237146549  W2        2475            0.0000000000
      7425      2475  TIP3      H2             -7.0266883614       20.0841543859       -2.7369646549  W2        2475            0.0000000000
      7426      2476  TIP3      OH2            -7.1740283614       20.2317443859        3.0880053451  W2        2476            0.0000000000
      7427      2476  TIP3      H1             -6.2412283614       20.4437343859        3.0536053451  W2        2476            0.0000000000
      7428      2476  TIP3      H2             -7.4092783614       20.3329543859        4.0103053451  W2        2476            0.0000000000
      7429      2477  TIP3      OH2            -7.1448383614       20.9682743859        5.8639453451  W2        2477            0.0000000000
      7430      2477  TIP3      H1             -7.9877083614       21.2363143859        6.2299253451  W2        2477            0.0000000000
      7431      2477  TIP3      H2             -6.7024083614       21.7904643859        5.6530553451  W2        2477            0.0000000000
      7432      2478  TIP3      OH2           -22.8636183614       19.4161443859        9.3408653451  W2        2478            0.0000000000
      7433      2478  TIP3      H1            -21.9441283614       19.2939743859        9.5771753451  W2        2478            0.0000000000
      7434      2478  TIP3      H2            -23.3131683614       18.6661143859        9.7302153451  W2        2478            0.0000000000
      7435      2479  TIP3      OH2            -4.8616783614       14.9482943859       11.2174453451  W2        2479            0.0000000000
      7436      2479  TIP3      H1             -4.5119783614       14.2946443859       10.6119153451  W2        2479            0.0000000000
      7437      2479  TIP3      H2             -4.7147283614       15.7857043859       10.7777053451  W2        2479            0.0000000000
      7438      2480  TIP3      OH2            -7.1723783614       16.9129343859       -2.2996846549  W2        2480            0.0000000000
      7439      2480  TIP3      H1             -6.9898783614       16.4640843859       -1.4741846549  W2        2480            0.0000000000
      7440      2480  TIP3      H2             -7.7720883614       16.3283743859       -2.7632246549  W2        2480            0.0000000000
      7441      2481  TIP3      OH2           -21.6423683614       17.7283043859        2.2321553451  W2        2481            0.0000000000
      7442      2481  TIP3      H1            -21.1972083614       16.9365543859        2.5341253451  W2        2481            0.0000000000
      7443      2481  TIP3      H2            -21.1760683614       18.4448243859        2.6627153451  W2        2481            0.0000000000
      7444      2482  TIP3      OH2           -23.3383383614       20.7276043859        3.3011753451  W2        2482            0.0000000000
      7445      2482  TIP3      H1            -22.8463583614       20.5066543859        2.5103753451  W2        2482            0.0000000000
      7446      2482  TIP3      H2            -22.9762483614       21.5679443859        3.5821253451  W2        2482            0.0000000000
      7447      2483  TIP3      OH2            -5.3419583614       17.0577543859        9.5665753451  W2        2483            0.0000000000
      7448      2483  TIP3      H1             -6.2593883614       17.3284643859        9.5309253451  W2        2483            0.0000000000
      7449      2483  TIP3      H2             -5.2190183614       16.5225943859        8.7825453451  W2        2483            0.0000000000
      7450      2484  TIP3      OH2            -5.3057583614       16.9807443859       -5.7716546549  W2        2484            0.0000000000
      7451      2484  TIP3      H1             -4.8934983614       16.2593143859       -6.2468546549  W2        2484            0.0000000000
      7452      2484  TIP3      H2             -4.6241083614       17.6502043859       -5.7132246549  W2        2484            0.0000000000
      7453      2485  TIP3      OH2           -23.0246883614       16.9855143859       -2.6445846549  W2        2485            0.0000000000
      7454      2485  TIP3      H1            -23.9498483614       17.1941743859       -2.7740346549  W2        2485            0.0000000000
      7455      2485  TIP3      H2            -22.5706983614       17.4695943859       -3.3343546549  W2        2485            0.0000000000
      7456      2486  TIP3      OH2           -23.0611483614       15.7234143859        5.6996653451  W2        2486            0.0000000000
      7457      2486  TIP3      H1            -23.7260983614       15.4774443859        6.3427553451  W2        2486            0.0000000000
      7458      2486  TIP3      H2            -23.5040183614       16.3454543859        5.1224653451  W2        2486            0.0000000000
      7459      2487  TIP3      OH2            -6.3413683614       15.1473843859        7.3856553451  W2        2487            0.0000000000
      7460      2487  TIP3      H1             -7.1540183614       15.4724143859        6.9981253451  W2        2487            0.0000000000
      7461      2487  TIP3      H2             -6.1085183614       14.3872343859        6.8525653451  W2        2487            0.0000000000
      7462      2488  TIP3      OH2           -12.9115183614       16.5964443859        1.7084753451  W2        2488            0.0000000000
      7463      2488  TIP3      H1            -13.5858383614       15.9670043859        1.9640553451  W2        2488            0.0000000000
      7464      2488  TIP3      H2            -12.3475983614       16.1123343859        1.1052653451  W2        2488            0.0000000000
      7465      2489  TIP3      OH2            -7.7687983614       14.7038443859        1.8211853451  W2        2489            0.0000000000
      7466      2489  TIP3      H1             -7.1650383614       15.2513843859        1.3192853451  W2        2489            0.0000000000
      7467      2489  TIP3      H2             -8.6385983614       15.0228843859        1.5805953451  W2        2489            0.0000000000
      7468      2490  TIP3      OH2            -6.0417583614       15.8427143859        0.1542753451  W2        2490            0.0000000000
      7469      2490  TIP3      H1             -5.4300083614       15.3282843859       -0.3723646549  W2        2490            0.0000000000
      7470      2490  TIP3      H2             -5.6594183614       16.7199243859        0.1777153451  W2        2490            0.0000000000
      7471      2491  TIP3      OH2           -20.5847683614       15.2304743859       -0.4695346549  W2        2491            0.0000000000
      7472      2491  TIP3      H1            -21.3617883614       14.9959643859       -0.9769446549  W2        2491            0.0000000000
      7473      2491  TIP3      H2            -20.0544083614       14.4336843859       -0.4607346549  W2        2491            0.0000000000
      7474      2492  TIP3      OH2           -21.7484283614       15.0282843859       -4.6659246549  W2        2492            0.0000000000
      7475      2492  TIP3      H1            -21.3093583614       15.6393343859       -5.2575746549  W2        2492            0.0000000000
      7476      2492  TIP3      H2            -22.3821883614       15.5666943859       -4.1919246549  W2        2492            0.0000000000
      7477      2493  TIP3      OH2           -16.0055083614       15.1571843859       -0.6562246549  W2        2493            0.0000000000
      7478      2493  TIP3      H1            -15.1311683614       15.5456143859       -0.6857946549  W2        2493            0.0000000000
      7479      2493  TIP3      H2            -16.1414283614       14.9419643859        0.2664953451  W2        2493            0.0000000000
      7480      2494  TIP3      OH2           -10.4486683614       15.1871643859        0.9929453451  W2        2494            0.0000000000
      7481      2494  TIP3      H1            -10.3725083614       15.2823243859        0.0435453451  W2        2494            0.0000000000
      7482      2494  TIP3      H2            -10.7237483614       14.2794543859        1.1218553451  W2        2494            0.0000000000
      7483      2495  TIP3      OH2            -9.0954083614       15.2129443859       -3.3145546549  W2        2495            0.0000000000
      7484      2495  TIP3      H1             -9.7982983614       15.8278643859       -3.5244146549  W2        2495            0.0000000000
      7485      2495  TIP3      H2             -9.5402683614       14.3756143859       -3.1834646549  W2        2495            0.0000000000
      7486      2496  TIP3      OH2           -19.8875183614       16.9444343859       -6.2235146549  W2        2496            0.0000000000
      7487      2496  TIP3      H1            -19.3961783614       16.3146743859       -6.7509646549  W2        2496            0.0000000000
      7488      2496  TIP3      H2            -19.2638883614       17.2403743859       -5.5603946549  W2        2496            0.0000000000
      7489      2497  TIP3      OH2           -14.8615083614       17.2375843859       -3.7664646549  W2        2497            0.0000000000
      7490      2497  TIP3      H1            -14.6833783614       16.5909043859       -3.0836046549  W2        2497            0.0000000000
      7491      2497  TIP3      H2            -14.9148883614       18.0713543859       -3.2993546549  W2        2497            0.0000000000
      7492      2498  TIP3      OH2           -20.6269683614       15.7446643859        9.0480853451  W2        2498            0.0000000000
      7493      2498  TIP3      H1            -20.9931483614       14.9789243859        9.4905553451  W2        2498            0.0000000000
      7494      2498  TIP3      H2            -19.7141183614       15.7736843859        9.3345953451  W2        2498            0.0000000000
      7495      2499  TIP3      OH2           -18.6538883614       15.0951043859       10.5837953451  W2        2499            0.0000000000
      7496      2499  TIP3      H1            -17.7555283614       14.8211243859       10.3991353451  W2        2499            0.0000000000
      7497      2499  TIP3      H2            -19.0405783614       14.3527043859       11.0480553451  W2        2499            0.0000000000
      7498      2500  TIP3      OH2           -10.2326583614       14.4276343859       10.7660753451  W2        2500            0.0000000000
      7499      2500  TIP3      H1            -10.1559383614       14.0017043859       11.6198453451  W2        2500            0.0000000000
      7500      2500  TIP3      H2             -9.3389983614       14.4411043859       10.4234253451  W2        2500            0.0000000000
      7501      2501  TIP3      OH2            -1.3488783614       23.2559843859        4.5010253451  W2        2501            0.0000000000
      7502      2501  TIP3      H1             -1.3076683614       22.6303143859        5.2242653451  W2        2501            0.0000000000
      7503      2501  TIP3      H2             -0.6461083614       23.8798443859        4.6830653451  W2        2501            0.0000000000
      7504      2502  TIP3      OH2            -3.8155183614       21.3661343859       -1.5711846549  W2        2502            0.0000000000
      7505      2502  TIP3      H1             -4.2631783614       22.2120043859       -1.5895346549  W2        2502            0.0000000000
      7506      2502  TIP3      H2             -4.3763983614       20.7865543859       -2.0866746549  W2        2502            0.0000000000
      7507      2503  TIP3      OH2            13.3350416386       17.6754443859        4.1747553451  W2        2503            0.0000000000
      7508      2503  TIP3      H1             13.3842616386       18.2855643859        4.9106653451  W2        2503            0.0000000000
      7509      2503  TIP3      H2             13.7605516386       18.1365343859        3.4518653451  W2        2503            0.0000000000
      7510      2504  TIP3      OH2             7.8127616386       20.4681543859        3.6416153451  W2        2504            0.0000000000
      7511      2504  TIP3      H1              7.9553516386       19.5218543859        3.6617753451  W2        2504            0.0000000000
      7512      2504  TIP3      H2              7.7066616386       20.6751343859        2.7131053451  W2        2504            0.0000000000
      7513      2505  TIP3      OH2             0.9675916386       18.5697943859        0.9140953451  W2        2505            0.0000000000
      7514      2505  TIP3      H1              1.0107016386       19.4296443859        0.4957253451  W2        2505            0.0000000000
      7515      2505  TIP3      H2              0.5100016386       18.0172643859        0.2804153451  W2        2505            0.0000000000
      7516      2506  TIP3      OH2             8.6898616386       18.7003543859       -0.6850746549  W2        2506            0.0000000000
      7517      2506  TIP3      H1              9.3362916386       18.3716743859       -0.0603146549  W2        2506            0.0000000000
      7518      2506  TIP3      H2              9.1998016386       19.2182543859       -1.3079346549  W2        2506            0.0000000000
      7519      2507  TIP3      OH2            -2.4122583614       20.9663743859        1.6762353451  W2        2507            0.0000000000
      7520      2507  TIP3      H1             -1.7585983614       20.4165443859        2.1082453451  W2        2507            0.0000000000
      7521      2507  TIP3      H2             -2.3883283614       20.6922743859        0.7594353451  W2        2507            0.0000000000
      7522      2508  TIP3      OH2             2.7441916386       22.5165043859        0.8913853451  W2        2508            0.0000000000
      7523      2508  TIP3      H1              3.3602916386       21.9900443859        1.4007853451  W2        2508            0.0000000000
      7524      2508  TIP3      H2              2.1580716386       21.8763743859        0.4877453451  W2        2508            0.0000000000
      7525      2509  TIP3      OH2            13.7265016386       19.1533643859        6.4107353451  W2        2509            0.0000000000
      7526      2509  TIP3      H1             13.0379616386       19.8114343859        6.3153953451  W2        2509            0.0000000000
      7527      2509  TIP3      H2             13.7419616386       18.9561543859        7.3472753451  W2        2509            0.0000000000
      7528      2510  TIP3      OH2            -0.2222183614       17.4876343859        4.9881753451  W2        2510            0.0000000000
      7529      2510  TIP3      H1             -0.4410483614       18.0176943859        4.2217753451  W2        2510            0.0000000000
      7530      2510  TIP3      H2             -0.8901283614       17.7141843859        5.6353153451  W2        2510            0.0000000000
      7531      2511  TIP3      OH2            10.4537016386       17.9912843859        1.2955153451  W2        2511            0.0000000000
      7532      2511  TIP3      H1             10.2385016386       17.2256243859        1.8281153451  W2        2511            0.0000000000
      7533      2511  TIP3      H2             11.1094416386       18.4637443859        1.8083653451  W2        2511            0.0000000000
      7534      2512  TIP3      OH2            -0.6284883614       19.3798143859        2.9403953451  W2        2512            0.0000000000
      7535      2512  TIP3      H1             -0.0148583614       20.0125743859        3.3136353451  W2        2512            0.0000000000
      7536      2512  TIP3      H2             -0.1164183614       18.9073143859        2.2840853451  W2        2512            0.0000000000
      7537      2513  TIP3      OH2            10.8011116386       16.7064143859        4.9748653451  W2        2513            0.0000000000
      7538      2513  TIP3      H1             10.0650316386       17.3171243859        4.9369953451  W2        2513            0.0000000000
      7539      2513  TIP3      H2             11.4845116386       17.1213143859        4.4485053451  W2        2513            0.0000000000
      7540      2514  TIP3      OH2             3.8042516386       14.7931443859        2.4406653451  W2        2514            0.0000000000
      7541      2514  TIP3      H1              3.6866716386       13.8447443859        2.3864953451  W2        2514            0.0000000000
      7542      2514  TIP3      H2              2.9492616386       15.1257543859        2.7137753451  W2        2514            0.0000000000
      7543      2515  TIP3      OH2             6.1246616386       22.0881343859       -6.0202546549  W2        2515            0.0000000000
      7544      2515  TIP3      H1              6.8256516386       22.1108243859       -5.3688546549  W2        2515            0.0000000000
      7545      2515  TIP3      H2              6.4269516386       21.4601043859       -6.6763246549  W2        2515            0.0000000000
      7546      2516  TIP3      OH2            13.4401316386       23.0085543859        5.2346853451  W2        2516            0.0000000000
      7547      2516  TIP3      H1             12.7875416386       23.7031143859        5.3237753451  W2        2516            0.0000000000
      7548      2516  TIP3      H2             13.9051616386       23.2186443859        4.4248453451  W2        2516            0.0000000000
      7549      2517  TIP3      OH2             9.3738616386       22.0142943859        6.9605353451  W2        2517            0.0000000000
      7550      2517  TIP3      H1              9.4537716386       22.7777343859        7.5323853451  W2        2517            0.0000000000
      7551      2517  TIP3      H2              8.7726316386       22.2935343859        6.2700453451  W2        2517            0.0000000000
      7552      2518  TIP3      OH2             1.4884316386       23.2392143859        3.4088353451  W2        2518            0.0000000000
      7553      2518  TIP3      H1              2.0536816386       23.3606343859        2.6459553451  W2        2518            0.0000000000
      7554      2518  TIP3      H2              1.8073216386       23.8767143859        4.0476853451  W2        2518            0.0000000000
      7555      2519  TIP3      OH2             8.3474616386       23.0023243859       -4.4220446549  W2        2519            0.0000000000
      7556      2519  TIP3      H1              8.9270116386       23.1523543859       -3.6751546549  W2        2519            0.0000000000
      7557      2519  TIP3      H2              8.7614616386       23.4730643859       -5.1454046549  W2        2519            0.0000000000
      7558      2520  TIP3      OH2            12.0463016386       14.7523643859       -4.6090746549  W2        2520            0.0000000000
      7559      2520  TIP3      H1             11.1463716386       14.8912643859       -4.3140146549  W2        2520            0.0000000000
      7560      2520  TIP3      H2             12.2981416386       15.5838243859       -5.0109046549  W2        2520            0.0000000000
      7561      2521  TIP3      OH2            11.3052616386       20.8426043859        9.2262053451  W2        2521            0.0000000000
      7562      2521  TIP3      H1             10.8979416386       21.3231643859        8.5055353451  W2        2521            0.0000000000
      7563      2521  TIP3      H2             11.3458316386       19.9372043859        8.9182853451  W2        2521            0.0000000000
      7564      2522  TIP3      OH2             1.0730116386       15.6965943859        3.2182953451  W2        2522            0.0000000000
      7565      2522  TIP3      H1              0.2113816386       15.6094143859        2.8105853451  W2        2522            0.0000000000
      7566      2522  TIP3      H2              1.0505816386       16.5526043859        3.6460553451  W2        2522            0.0000000000
      7567      2523  TIP3      OH2             5.7357916386       15.4186343859        6.5929953451  W2        2523            0.0000000000
      7568      2523  TIP3      H1              6.1561016386       15.0033443859        7.3460553451  W2        2523            0.0000000000
      7569      2523  TIP3      H2              4.8027516386       15.2399643859        6.7101953451  W2        2523            0.0000000000
      7570      2524  TIP3      OH2             9.0622816386       19.1741543859        7.4464453451  W2        2524            0.0000000000
      7571      2524  TIP3      H1              8.5482316386       19.0483743859        8.2440453451  W2        2524            0.0000000000
      7572      2524  TIP3      H2              8.9067516386       20.0864643859        7.2020653451  W2        2524            0.0000000000
      7573      2525  TIP3      OH2             5.3975216386       17.9109743859       -6.1219246549  W2        2525            0.0000000000
      7574      2525  TIP3      H1              5.1440016386       17.9301343859       -5.1991146549  W2        2525            0.0000000000
      7575      2525  TIP3      H2              5.1407316386       17.0395143859       -6.4233046549  W2        2525            0.0000000000
      7576      2526  TIP3      OH2             1.1640216386       20.6620443859        4.3133153451  W2        2526            0.0000000000
      7577      2526  TIP3      H1              0.5222316386       20.6217743859        5.0223253451  W2        2526            0.0000000000
      7578      2526  TIP3      H2              1.2012216386       21.5885143859        4.0756153451  W2        2526            0.0000000000
      7579      2527  TIP3      OH2             1.1609316386       20.8830543859       -0.7746846549  W2        2527            0.0000000000
      7580      2527  TIP3      H1              0.2682216386       20.5426643859       -0.8333046549  W2        2527            0.0000000000
      7581      2527  TIP3      H2              1.6115916386       20.5061443859       -1.5303646549  W2        2527            0.0000000000
      7582      2528  TIP3      OH2             6.6964816386       21.2990843859       -1.9576046549  W2        2528            0.0000000000
      7583      2528  TIP3      H1              6.2875116386       22.1139443859       -2.2491246549  W2        2528            0.0000000000
      7584      2528  TIP3      H2              7.4171016386       21.1590943859       -2.5718946549  W2        2528            0.0000000000
      7585      2529  TIP3      OH2             5.7986416386       21.4747243859        9.5304653451  W2        2529            0.0000000000
      7586      2529  TIP3      H1              5.2360216386       20.7698843859        9.8512453451  W2        2529            0.0000000000
      7587      2529  TIP3      H2              6.6249816386       21.3539143859        9.9982253451  W2        2529            0.0000000000
      7588      2530  TIP3      OH2             7.7012516386       20.7451243859        0.8563653451  W2        2530            0.0000000000
      7589      2530  TIP3      H1              7.5057016386       21.3508043859        0.1414253451  W2        2530            0.0000000000
      7590      2530  TIP3      H2              7.8825116386       19.9116443859        0.4219953451  W2        2530            0.0000000000
      7591      2531  TIP3      OH2            -1.0859283614       20.9823943859        6.1805153451  W2        2531            0.0000000000
      7592      2531  TIP3      H1             -1.1239883614       21.3825543859        7.0492253451  W2        2531            0.0000000000
      7593      2531  TIP3      H2             -1.5768183614       20.1656343859        6.2708053451  W2        2531            0.0000000000
      7594      2532  TIP3      OH2             2.2798116386       18.3566243859       -7.0208846549  W2        2532            0.0000000000
      7595      2532  TIP3      H1              1.8488816386       17.9116343859       -6.2911446549  W2        2532            0.0000000000
      7596      2532  TIP3      H2              1.5616816386       18.7282543859       -7.5331346549  W2        2532            0.0000000000
      7597      2533  TIP3      OH2            -4.4778483614       18.0985743859        0.0309853451  W2        2533            0.0000000000
      7598      2533  TIP3      H1             -3.8470783614       18.0697843859        0.7503753451  W2        2533            0.0000000000
      7599      2533  TIP3      H2             -4.0284183614       17.6734443859       -0.6994246549  W2        2533            0.0000000000
      7600      2534  TIP3      OH2            -3.2036383614       18.8447743859       -4.5449746549  W2        2534            0.0000000000
      7601      2534  TIP3      H1             -2.7294683614       19.4357643859       -5.1298846549  W2        2534            0.0000000000
      7602      2534  TIP3      H2             -3.9209983614       19.3750643859       -4.1979646549  W2        2534            0.0000000000
      7603      2535  TIP3      OH2             6.9651716386       22.3832543859        5.5276053451  W2        2535            0.0000000000
      7604      2535  TIP3      H1              7.2886516386       21.7522243859        4.8846553451  W2        2535            0.0000000000
      7605      2535  TIP3      H2              6.5251016386       21.8484743859        6.1883453451  W2        2535            0.0000000000
      7606      2536  TIP3      OH2             3.7424616386       18.3108043859        0.3117253451  W2        2536            0.0000000000
      7607      2536  TIP3      H1              2.8315716386       18.3674843859        0.6003253451  W2        2536            0.0000000000
      7608      2536  TIP3      H2              4.2477516386       18.2503543859        1.1224453451  W2        2536            0.0000000000
      7609      2537  TIP3      OH2            -1.4291983614       19.9394343859       -0.8615146549  W2        2537            0.0000000000
      7610      2537  TIP3      H1             -2.3183983614       20.0389843859       -1.2015546549  W2        2537            0.0000000000
      7611      2537  TIP3      H2             -1.1327083614       19.0977343859       -1.2077246549  W2        2537            0.0000000000
      7612      2538  TIP3      OH2             2.2239816386       19.9396943859       -3.2050546549  W2        2538            0.0000000000
      7613      2538  TIP3      H1              3.1555316386       20.0686943859       -3.0267446549  W2        2538            0.0000000000
      7614      2538  TIP3      H2              2.0090116386       20.6091243859       -3.8545846549  W2        2538            0.0000000000
      7615      2539  TIP3      OH2             8.1476516386       17.5454343859        3.5759053451  W2        2539            0.0000000000
      7616      2539  TIP3      H1              7.4708116386       17.6767443859        4.2398753451  W2        2539            0.0000000000
      7617      2539  TIP3      H2              7.6621416386       17.3903843859        2.7656753451  W2        2539            0.0000000000
      7618      2540  TIP3      OH2             0.8980016386       21.1339143859       -5.6384446549  W2        2540            0.0000000000
      7619      2540  TIP3      H1              0.3555116386       20.7542943859       -6.3296846549  W2        2540            0.0000000000
      7620      2540  TIP3      H2              1.7314916386       21.3283843859       -6.0670346549  W2        2540            0.0000000000
      7621      2541  TIP3      OH2             5.0624316386       21.0981043859        2.1986853451  W2        2541            0.0000000000
      7622      2541  TIP3      H1              5.6267716386       20.5517643859        1.6516453451  W2        2541            0.0000000000
      7623      2541  TIP3      H2              4.9147716386       20.5762943859        2.9874453451  W2        2541            0.0000000000
      7624      2542  TIP3      OH2             0.0644016386       17.2347143859       -1.3828346549  W2        2542            0.0000000000
      7625      2542  TIP3      H1             -0.2526483614       16.3322443859       -1.4182946549  W2        2542            0.0000000000
      7626      2542  TIP3      H2              0.8458116386       17.2364543859       -1.9356746549  W2        2542            0.0000000000
      7627      2543  TIP3      OH2             3.6890216386       19.4867143859        4.6127253451  W2        2543            0.0000000000
      7628      2543  TIP3      H1              2.8535516386       19.9406643859        4.7229653451  W2        2543            0.0000000000
      7629      2543  TIP3      H2              4.2130816386       19.7625643859        5.3647153451  W2        2543            0.0000000000
      7630      2544  TIP3      OH2             8.1309616386       18.5134743859       -5.5033746549  W2        2544            0.0000000000
      7631      2544  TIP3      H1              7.1923816386       18.6250343859       -5.6544946549  W2        2544            0.0000000000
      7632      2544  TIP3      H2              8.4281716386       19.3701643859       -5.1968046549  W2        2544            0.0000000000
      7633      2545  TIP3      OH2             8.8493116386       20.3807443859       -3.8426346549  W2        2545            0.0000000000
      7634      2545  TIP3      H1              9.7412116386       20.2432443859       -3.5235146549  W2        2545            0.0000000000
      7635      2545  TIP3      H2              8.9056716386       21.1713543859       -4.3792846549  W2        2545            0.0000000000
      7636      2546  TIP3      OH2             3.3825716386       22.9721643859        9.5949753451  W2        2546            0.0000000000
      7637      2546  TIP3      H1              3.0866516386       22.8064643859        8.6998853451  W2        2546            0.0000000000
      7638      2546  TIP3      H2              4.3140916386       22.7521943859        9.5843653451  W2        2546            0.0000000000
      7639      2547  TIP3      OH2            13.7341816386       20.5901543859       -4.1479646549  W2        2547            0.0000000000
      7640      2547  TIP3      H1             13.1798116386       20.1939543859       -4.8202146549  W2        2547            0.0000000000
      7641      2547  TIP3      H2             13.8345416386       21.5006743859       -4.4256346549  W2        2547            0.0000000000
      7642      2548  TIP3      OH2            -2.5121783614       23.3747143859       -5.9414546549  W2        2548            0.0000000000
      7643      2548  TIP3      H1             -1.8961883614       24.0014343859       -5.5619746549  W2        2548            0.0000000000
      7644      2548  TIP3      H2             -3.3739183614       23.6906943859       -5.6698046549  W2        2548            0.0000000000
      7645      2549  TIP3      OH2            -1.9999683614       18.2084443859        6.9401453451  W2        2549            0.0000000000
      7646      2549  TIP3      H1             -2.8927383614       18.5469843859        6.8725453451  W2        2549            0.0000000000
      7647      2549  TIP3      H2             -2.0986883614       17.3530543859        7.3582253451  W2        2549            0.0000000000
      7648      2550  TIP3      OH2             6.7343716386       17.9494743859        5.8300053451  W2        2550            0.0000000000
      7649      2550  TIP3      H1              7.4331616386       18.0233443859        6.4799753451  W2        2550            0.0000000000
      7650      2550  TIP3      H2              6.3535116386       17.0849743859        5.9842953451  W2        2550            0.0000000000
      7651      2551  TIP3      OH2             7.5188616386       17.6016443859       -3.0727646549  W2        2551            0.0000000000
      7652      2551  TIP3      H1              7.7386916386       18.0731843859       -3.8762246549  W2        2551            0.0000000000
      7653      2551  TIP3      H2              8.0772616386       17.9959043859       -2.4027046549  W2        2551            0.0000000000
      7654      2552  TIP3      OH2             4.7188516386       19.3295243859       -2.2379246549  W2        2552            0.0000000000
      7655      2552  TIP3      H1              5.5311116386       19.8338443859       -2.1917546549  W2        2552            0.0000000000
      7656      2552  TIP3      H2              4.4741516386       19.1844943859       -1.3239646549  W2        2552            0.0000000000
      7657      2553  TIP3      OH2             5.2544916386       20.3157943859        6.9467353451  W2        2553            0.0000000000
      7658      2553  TIP3      H1              5.3735216386       20.8893343859        7.7037753451  W2        2553            0.0000000000
      7659      2553  TIP3      H2              5.9099516386       19.6277343859        7.0615153451  W2        2553            0.0000000000
      7660      2554  TIP3      OH2             5.6025216386       16.4108243859       -1.2998146549  W2        2554            0.0000000000
      7661      2554  TIP3      H1              5.2558716386       17.0278843859       -0.6553846549  W2        2554            0.0000000000
      7662      2554  TIP3      H2              6.2612116386       16.9113943859       -1.7812646549  W2        2554            0.0000000000
      7663      2555  TIP3      OH2             1.2602216386       17.4737643859       -4.6125646549  W2        2555            0.0000000000
      7664      2555  TIP3      H1              1.1767016386       18.3620743859       -4.2659246549  W2        2555            0.0000000000
      7665      2555  TIP3      H2              2.1502516386       17.2084343859       -4.3808846549  W2        2555            0.0000000000
      7666      2556  TIP3      OH2            11.4590716386       18.2228243859        7.7817053451  W2        2556            0.0000000000
      7667      2556  TIP3      H1             10.5426516386       18.4849943859        7.6940753451  W2        2556            0.0000000000
      7668      2556  TIP3      H2             11.7945716386       18.2197243859        6.8852353451  W2        2556            0.0000000000
      7669      2557  TIP3      OH2            10.0611716386       21.9729243859        1.8774353451  W2        2557            0.0000000000
      7670      2557  TIP3      H1              9.2636116386       21.5579443859        1.5489353451  W2        2557            0.0000000000
      7671      2557  TIP3      H2             10.5062816386       21.2822943859        2.3684853451  W2        2557            0.0000000000
      7672      2558  TIP3      OH2            -2.1653283614       20.5652843859       -6.4361746549  W2        2558            0.0000000000
      7673      2558  TIP3      H1             -2.2100683614       21.5045943859       -6.2574746549  W2        2558            0.0000000000
      7674      2558  TIP3      H2             -3.0530083614       20.3297743859       -6.7059646549  W2        2558            0.0000000000
      7675      2559  TIP3      OH2            -1.3571283614       15.3469443859        2.2369253451  W2        2559            0.0000000000
      7676      2559  TIP3      H1             -1.5861483614       15.4061943859        1.3094253451  W2        2559            0.0000000000
      7677      2559  TIP3      H2             -1.7997883614       14.5554943859        2.5433353451  W2        2559            0.0000000000
      7678      2560  TIP3      OH2            -2.3988283614       22.9107643859       10.1016653451  W2        2560            0.0000000000
      7679      2560  TIP3      H1             -1.9907083614       22.0534243859        9.9807253451  W2        2560            0.0000000000
      7680      2560  TIP3      H2             -2.6590683614       22.9248943859       11.0226953451  W2        2560            0.0000000000
      7681      2561  TIP3      OH2             1.5482016386       21.9193343859        7.4759553451  W2        2561            0.0000000000
      7682      2561  TIP3      H1              0.9298116386       22.5939943859        7.7564253451  W2        2561            0.0000000000
      7683      2561  TIP3      H2              1.8923216386       22.2407243859        6.6425753451  W2        2561            0.0000000000
      7684      2562  TIP3      OH2             3.3303116386       22.2698043859       -6.6176846549  W2        2562            0.0000000000
      7685      2562  TIP3      H1              3.1498116386       22.1149243859       -7.5448546549  W2        2562            0.0000000000
      7686      2562  TIP3      H2              4.2803616386       22.3776743859       -6.5728946549  W2        2562            0.0000000000
      7687      2563  TIP3      OH2             1.8875716386       19.2744143859        8.5582653451  W2        2563            0.0000000000
      7688      2563  TIP3      H1              2.0376616386       18.5455443859        7.9562353451  W2        2563            0.0000000000
      7689      2563  TIP3      H2              1.8898116386       20.0515843859        7.9994853451  W2        2563            0.0000000000
      7690      2564  TIP3      OH2             2.3001416386       17.6439943859        6.0510053451  W2        2564            0.0000000000
      7691      2564  TIP3      H1              2.8358916386       18.0956643859        5.3989353451  W2        2564            0.0000000000
      7692      2564  TIP3      H2              1.4481016386       17.5359743859        5.6284153451  W2        2564            0.0000000000
      7693      2565  TIP3      OH2             3.8819816386       23.0836143859        6.2905253451  W2        2565            0.0000000000
      7694      2565  TIP3      H1              4.6324616386       22.9273643859        5.7173053451  W2        2565            0.0000000000
      7695      2565  TIP3      H2              3.5428116386       23.9352743859        6.0150753451  W2        2565            0.0000000000
      7696      2566  TIP3      OH2             8.2976016386       20.8987943859       11.3190553451  W2        2566            0.0000000000
      7697      2566  TIP3      H1              8.4897316386       19.9677343859       11.2075053451  W2        2566            0.0000000000
      7698      2566  TIP3      H2              9.1552316386       21.3237443859       11.3085953451  W2        2566            0.0000000000
      7699      2567  TIP3      OH2             0.3662016386       20.4727643859       10.4698253451  W2        2567            0.0000000000
      7700      2567  TIP3      H1             -0.4008983614       19.9402443859       10.2595853451  W2        2567            0.0000000000
      7701      2567  TIP3      H2              1.0451016386       20.1628043859        9.8704553451  W2        2567            0.0000000000
      7702      2568  TIP3      OH2             3.1056916386       15.1005643859        6.4823653451  W2        2568            0.0000000000
      7703      2568  TIP3      H1              3.0076516386       16.0468843859        6.3769853451  W2        2568            0.0000000000
      7704      2568  TIP3      H2              2.3633116386       14.7279443859        6.0067153451  W2        2568            0.0000000000
      7705      2569  TIP3      OH2             4.3697416386       19.4221043859       10.0462053451  W2        2569            0.0000000000
      7706      2569  TIP3      H1              4.1342816386       19.2027743859       10.9476953451  W2        2569            0.0000000000
      7707      2569  TIP3      H2              3.5864316386       19.2152243859        9.5364553451  W2        2569            0.0000000000
      7708      2570  TIP3      OH2             7.0854016386       18.5494543859        9.1215553451  W2        2570            0.0000000000
      7709      2570  TIP3      H1              6.1379416386       18.5814243859        9.2538853451  W2        2570            0.0000000000
      7710      2570  TIP3      H2              7.3980716386       17.9241643859        9.7753753451  W2        2570            0.0000000000
      7711      2571  TIP3      OH2             8.7195516386       17.1835643859       11.1267453451  W2        2571            0.0000000000
      7712      2571  TIP3      H1              8.6227316386       16.2312943859       11.1209353451  W2        2571            0.0000000000
      7713      2571  TIP3      H2              8.3978616386       17.4522443859       11.9872953451  W2        2571            0.0000000000
      7714      2572  TIP3      OH2            -1.4535183614       18.3931443859       10.1742953451  W2        2572            0.0000000000
      7715      2572  TIP3      H1             -1.2417783614       17.6867543859        9.5640453451  W2        2572            0.0000000000
      7716      2572  TIP3      H2             -1.5647683614       17.9557443859       11.0184153451  W2        2572            0.0000000000
      7717      2573  TIP3      OH2             3.3275016386       14.3943043859        9.1536453451  W2        2573            0.0000000000
      7718      2573  TIP3      H1              4.0393416386       13.7545243859        9.1395553451  W2        2573            0.0000000000
      7719      2573  TIP3      H2              3.2265416386       14.6611343859        8.2399553451  W2        2573            0.0000000000
      7720      2574  TIP3      OH2             3.6812516386       16.0771443859       11.2072753451  W2        2574            0.0000000000
      7721      2574  TIP3      H1              3.5494716386       15.6015243859       10.3871253451  W2        2574            0.0000000000
      7722      2574  TIP3      H2              3.0819916386       16.8215043859       11.1519853451  W2        2574            0.0000000000
      7723      2575  TIP3      OH2            12.1901916386       20.6871843859       -6.4314246549  W2        2575            0.0000000000
      7724      2575  TIP3      H1             12.2866316386       21.3538843859       -7.1114546549  W2        2575            0.0000000000
      7725      2575  TIP3      H2             12.0501516386       19.8718143859       -6.9128746549  W2        2575            0.0000000000
      7726      2576  TIP3      OH2            11.3596616386       22.0674243859       -0.8103946549  W2        2576            0.0000000000
      7727      2576  TIP3      H1             11.2095416386       21.1222843859       -0.8306146549  W2        2576            0.0000000000
      7728      2576  TIP3      H2             11.0061116386       22.3485643859        0.0335153451  W2        2576            0.0000000000
      7729      2577  TIP3      OH2            13.7126616386       21.9403343859        9.5129753451  W2        2577            0.0000000000
      7730      2577  TIP3      H1             12.8493316386       21.5615443859        9.3474453451  W2        2577            0.0000000000
      7731      2577  TIP3      H2             14.3170316386       21.2018143859        9.4385553451  W2        2577            0.0000000000
      7732      2578  TIP3      OH2            11.4375716386       18.0951643859       -7.3138746549  W2        2578            0.0000000000
      7733      2578  TIP3      H1             12.0481516386       17.7238443859       -6.6770546549  W2        2578            0.0000000000
      7734      2578  TIP3      H2             10.6007216386       17.6738543859       -7.1178746549  W2        2578            0.0000000000
      7735      2579  TIP3      OH2            11.0701416386       19.6500043859       -2.3478846549  W2        2579            0.0000000000
      7736      2579  TIP3      H1             11.3498516386       18.7430443859       -2.2237146549  W2        2579            0.0000000000
      7737      2579  TIP3      H2             11.8293116386       20.0841543859       -2.7369646549  W2        2579            0.0000000000
      7738      2580  TIP3      OH2            11.6819716386       20.2317443859        3.0880053451  W2        2580            0.0000000000
      7739      2580  TIP3      H1             12.6147716386       20.4437343859        3.0536053451  W2        2580            0.0000000000
      7740      2580  TIP3      H2             11.4467216386       20.3329543859        4.0103053451  W2        2580            0.0000000000
      7741      2581  TIP3      OH2            11.7111616386       20.9682743859        5.8639453451  W2        2581            0.0000000000
      7742      2581  TIP3      H1             10.8682916386       21.2363143859        6.2299253451  W2        2581            0.0000000000
      7743      2581  TIP3      H2             12.1535916386       21.7904643859        5.6530553451  W2        2581            0.0000000000
      7744      2582  TIP3      OH2            -4.0076183614       19.4161443859        9.3408653451  W2        2582            0.0000000000
      7745      2582  TIP3      H1             -3.0881283614       19.2939743859        9.5771753451  W2        2582            0.0000000000
      7746      2582  TIP3      H2             -4.4571683614       18.6661143859        9.7302153451  W2        2582            0.0000000000
      7747      2583  TIP3      OH2            13.9943216386       14.9482943859       11.2174453451  W2        2583            0.0000000000
      7748      2583  TIP3      H1             14.3440216386       14.2946443859       10.6119153451  W2        2583            0.0000000000
      7749      2583  TIP3      H2             14.1412716386       15.7857043859       10.7777053451  W2        2583            0.0000000000
      7750      2584  TIP3      OH2            11.6836216386       16.9129343859       -2.2996846549  W2        2584            0.0000000000
      7751      2584  TIP3      H1             11.8661216386       16.4640843859       -1.4741846549  W2        2584            0.0000000000
      7752      2584  TIP3      H2             11.0839116386       16.3283743859       -2.7632246549  W2        2584            0.0000000000
      7753      2585  TIP3      OH2            -2.7863683614       17.7283043859        2.2321553451  W2        2585            0.0000000000
      7754      2585  TIP3      H1             -2.3412083614       16.9365543859        2.5341253451  W2        2585            0.0000000000
      7755      2585  TIP3      H2             -2.3200683614       18.4448243859        2.6627153451  W2        2585            0.0000000000
      7756      2586  TIP3      OH2            -4.4823383614       20.7276043859        3.3011753451  W2        2586            0.0000000000
      7757      2586  TIP3      H1             -3.9903583614       20.5066543859        2.5103753451  W2        2586            0.0000000000
      7758      2586  TIP3      H2             -4.1202483614       21.5679443859        3.5821253451  W2        2586            0.0000000000
      7759      2587  TIP3      OH2            13.5140416386       17.0577543859        9.5665753451  W2        2587            0.0000000000
      7760      2587  TIP3      H1             12.5966116386       17.3284643859        9.5309253451  W2        2587            0.0000000000
      7761      2587  TIP3      H2             13.6369816386       16.5225943859        8.7825453451  W2        2587            0.0000000000
      7762      2588  TIP3      OH2            13.5502416386       16.9807443859       -5.7716546549  W2        2588            0.0000000000
      7763      2588  TIP3      H1             13.9625016386       16.2593143859       -6.2468546549  W2        2588            0.0000000000
      7764      2588  TIP3      H2             14.2318916386       17.6502043859       -5.7132246549  W2        2588            0.0000000000
      7765      2589  TIP3      OH2            -4.1686883614       16.9855143859       -2.6445846549  W2        2589            0.0000000000
      7766      2589  TIP3      H1             -5.0938483614       17.1941743859       -2.7740346549  W2        2589            0.0000000000
      7767      2589  TIP3      H2             -3.7146983614       17.4695943859       -3.3343546549  W2        2589            0.0000000000
      7768      2590  TIP3      OH2            -4.2051483614       15.7234143859        5.6996653451  W2        2590            0.0000000000
      7769      2590  TIP3      H1             -4.8700983614       15.4774443859        6.3427553451  W2        2590            0.0000000000
      7770      2590  TIP3      H2             -4.6480183614       16.3454543859        5.1224653451  W2        2590            0.0000000000
      7771      2591  TIP3      OH2            12.5146316386       15.1473843859        7.3856553451  W2        2591            0.0000000000
      7772      2591  TIP3      H1             11.7019816386       15.4724143859        6.9981253451  W2        2591            0.0000000000
      7773      2591  TIP3      H2             12.7474816386       14.3872343859        6.8525653451  W2        2591            0.0000000000
      7774      2592  TIP3      OH2             5.9444816386       16.5964443859        1.7084753451  W2        2592            0.0000000000
      7775      2592  TIP3      H1              5.2701616386       15.9670043859        1.9640553451  W2        2592            0.0000000000
      7776      2592  TIP3      H2              6.5084016386       16.1123343859        1.1052653451  W2        2592            0.0000000000
      7777      2593  TIP3      OH2            11.0872016386       14.7038443859        1.8211853451  W2        2593            0.0000000000
      7778      2593  TIP3      H1             11.6909616386       15.2513843859        1.3192853451  W2        2593            0.0000000000
      7779      2593  TIP3      H2             10.2174016386       15.0228843859        1.5805953451  W2        2593            0.0000000000
      7780      2594  TIP3      OH2            12.8142416386       15.8427143859        0.1542753451  W2        2594            0.0000000000
      7781      2594  TIP3      H1             13.4259916386       15.3282843859       -0.3723646549  W2        2594            0.0000000000
      7782      2594  TIP3      H2             13.1965816386       16.7199243859        0.1777153451  W2        2594            0.0000000000
      7783      2595  TIP3      OH2            -1.7287683614       15.2304743859       -0.4695346549  W2        2595            0.0000000000
      7784      2595  TIP3      H1             -2.5057883614       14.9959643859       -0.9769446549  W2        2595            0.0000000000
      7785      2595  TIP3      H2             -1.1984083614       14.4336843859       -0.4607346549  W2        2595            0.0000000000
      7786      2596  TIP3      OH2            -2.8924283614       15.0282843859       -4.6659246549  W2        2596            0.0000000000
      7787      2596  TIP3      H1             -2.4533583614       15.6393343859       -5.2575746549  W2        2596            0.0000000000
      7788      2596  TIP3      H2             -3.5261883614       15.5666943859       -4.1919246549  W2        2596            0.0000000000
      7789      2597  TIP3      OH2             2.8504916386       15.1571843859       -0.6562246549  W2        2597            0.0000000000
      7790      2597  TIP3      H1              3.7248316386       15.5456143859       -0.6857946549  W2        2597            0.0000000000
      7791      2597  TIP3      H2              2.7145716386       14.9419643859        0.2664953451  W2        2597            0.0000000000
      7792      2598  TIP3      OH2             8.4073316386       15.1871643859        0.9929453451  W2        2598            0.0000000000
      7793      2598  TIP3      H1              8.4834916386       15.2823243859        0.0435453451  W2        2598            0.0000000000
      7794      2598  TIP3      H2              8.1322516386       14.2794543859        1.1218553451  W2        2598            0.0000000000
      7795      2599  TIP3      OH2             9.7605916386       15.2129443859       -3.3145546549  W2        2599            0.0000000000
      7796      2599  TIP3      H1              9.0577016386       15.8278643859       -3.5244146549  W2        2599            0.0000000000
      7797      2599  TIP3      H2              9.3157316386       14.3756143859       -3.1834646549  W2        2599            0.0000000000
      7798      2600  TIP3      OH2            -1.0315183614       16.9444343859       -6.2235146549  W2        2600            0.0000000000
      7799      2600  TIP3      H1             -0.5401783614       16.3146743859       -6.7509646549  W2        2600            0.0000000000
      7800      2600  TIP3      H2             -0.4078883614       17.2403743859       -5.5603946549  W2        2600            0.0000000000
      7801      2601  TIP3      OH2             3.9944916386       17.2375843859       -3.7664646549  W2        2601            0.0000000000
      7802      2601  TIP3      H1              4.1726216386       16.5909043859       -3.0836046549  W2        2601            0.0000000000
      7803      2601  TIP3      H2              3.9411116386       18.0713543859       -3.2993546549  W2        2601            0.0000000000
      7804      2602  TIP3      OH2            -1.7709683614       15.7446643859        9.0480853451  W2        2602            0.0000000000
      7805      2602  TIP3      H1             -2.1371483614       14.9789243859        9.4905553451  W2        2602            0.0000000000
      7806      2602  TIP3      H2             -0.8581183614       15.7736843859        9.3345953451  W2        2602            0.0000000000
      7807      2603  TIP3      OH2             0.2021116386       15.0951043859       10.5837953451  W2        2603            0.0000000000
      7808      2603  TIP3      H1              1.1004716386       14.8211243859       10.3991353451  W2        2603            0.0000000000
      7809      2603  TIP3      H2             -0.1845783614       14.3527043859       11.0480553451  W2        2603            0.0000000000
      7810      2604  TIP3      OH2             8.6233416386       14.4276343859       10.7660753451  W2        2604            0.0000000000
      7811      2604  TIP3      H1              8.7000616386       14.0017043859       11.6198453451  W2        2604            0.0000000000
      7812      2604  TIP3      H2              9.5170016386       14.4411043859       10.4234253451  W2        2604            0.0000000000
      7813      2605  TIP3      OH2            17.5071216386       23.2559843859        4.5010253451  W2        2605            0.0000000000
      7814      2605  TIP3      H1             17.5483316386       22.6303143859        5.2242653451  W2        2605            0.0000000000
      7815      2605  TIP3      H2             18.2098916386       23.8798443859        4.6830653451  W2        2605            0.0000000000
      7816      2606  TIP3      OH2            15.0404816386       21.3661343859       -1.5711846549  W2        2606            0.0000000000
      7817      2606  TIP3      H1             14.5928216386       22.2120043859       -1.5895346549  W2        2606            0.0000000000
      7818      2606  TIP3      H2             14.4796016386       20.7865543859       -2.0866746549  W2        2606            0.0000000000
      7819      2607  TIP3      OH2            19.8235916386       18.5697943859        0.9140953451  W2        2607            0.0000000000
      7820      2607  TIP3      H1             19.8667016386       19.4296443859        0.4957253451  W2        2607            0.0000000000
      7821      2607  TIP3      H2             19.3660016386       18.0172643859        0.2804153451  W2        2607            0.0000000000
      7822      2608  TIP3      OH2            16.4437416386       20.9663743859        1.6762353451  W2        2608            0.0000000000
      7823      2608  TIP3      H1             17.0974016386       20.4165443859        2.1082453451  W2        2608            0.0000000000
      7824      2608  TIP3      H2             16.4676716386       20.6922743859        0.7594353451  W2        2608            0.0000000000
      7825      2609  TIP3      OH2            21.6001916386       22.5165043859        0.8913853451  W2        2609            0.0000000000
      7826      2609  TIP3      H1             22.2162916386       21.9900443859        1.4007853451  W2        2609            0.0000000000
      7827      2609  TIP3      H2             21.0140716386       21.8763743859        0.4877453451  W2        2609            0.0000000000
      7828      2610  TIP3      OH2            18.6337816386       17.4876343859        4.9881753451  W2        2610            0.0000000000
      7829      2610  TIP3      H1             18.4149516386       18.0176943859        4.2217753451  W2        2610            0.0000000000
      7830      2610  TIP3      H2             17.9658716386       17.7141843859        5.6353153451  W2        2610            0.0000000000
      7831      2611  TIP3      OH2            18.2275116386       19.3798143859        2.9403953451  W2        2611            0.0000000000
      7832      2611  TIP3      H1             18.8411416386       20.0125743859        3.3136353451  W2        2611            0.0000000000
      7833      2611  TIP3      H2             18.7395816386       18.9073143859        2.2840853451  W2        2611            0.0000000000
      7834      2612  TIP3      OH2            22.6602516386       14.7931443859        2.4406653451  W2        2612            0.0000000000
      7835      2612  TIP3      H1             22.5426716386       13.8447443859        2.3864953451  W2        2612            0.0000000000
      7836      2612  TIP3      H2             21.8052616386       15.1257543859        2.7137753451  W2        2612            0.0000000000
      7837      2613  TIP3      OH2            20.3444316386       23.2392143859        3.4088353451  W2        2613            0.0000000000
      7838      2613  TIP3      H1             20.9096816386       23.3606343859        2.6459553451  W2        2613            0.0000000000
      7839      2613  TIP3      H2             20.6633216386       23.8767143859        4.0476853451  W2        2613            0.0000000000
      7840      2614  TIP3      OH2            19.9290116386       15.6965943859        3.2182953451  W2        2614            0.0000000000
      7841      2614  TIP3      H1             19.0673816386       15.6094143859        2.8105853451  W2        2614            0.0000000000
      7842      2614  TIP3      H2             19.9065816386       16.5526043859        3.6460553451  W2        2614            0.0000000000
      7843      2615  TIP3      OH2            20.0200216386       20.6620443859        4.3133153451  W2        2615            0.0000000000
      7844      2615  TIP3      H1             19.3782316386       20.6217743859        5.0223253451  W2        2615            0.0000000000
      7845      2615  TIP3      H2             20.0572216386       21.5885143859        4.0756153451  W2        2615            0.0000000000
      7846      2616  TIP3      OH2            20.0169316386       20.8830543859       -0.7746846549  W2        2616            0.0000000000
      7847      2616  TIP3      H1             19.1242216386       20.5426643859       -0.8333046549  W2        2616            0.0000000000
      7848      2616  TIP3      H2             20.4675916386       20.5061443859       -1.5303646549  W2        2616            0.0000000000
      7849      2617  TIP3      OH2            17.7700716386       20.9823943859        6.1805153451  W2        2617            0.0000000000
      7850      2617  TIP3      H1             17.7320116386       21.3825543859        7.0492253451  W2        2617            0.0000000000
      7851      2617  TIP3      H2             17.2791816386       20.1656343859        6.2708053451  W2        2617            0.0000000000
      7852      2618  TIP3      OH2            21.1358116386       18.3566243859       -7.0208846549  W2        2618            0.0000000000
      7853      2618  TIP3      H1             20.7048816386       17.9116343859       -6.2911446549  W2        2618            0.0000000000
      7854      2618  TIP3      H2             20.4176816386       18.7282543859       -7.5331346549  W2        2618            0.0000000000
      7855      2619  TIP3      OH2            14.3781516386       18.0985743859        0.0309853451  W2        2619            0.0000000000
      7856      2619  TIP3      H1             15.0089216386       18.0697843859        0.7503753451  W2        2619            0.0000000000
      7857      2619  TIP3      H2             14.8275816386       17.6734443859       -0.6994246549  W2        2619            0.0000000000
      7858      2620  TIP3      OH2            15.6523616386       18.8447743859       -4.5449746549  W2        2620            0.0000000000
      7859      2620  TIP3      H1             16.1265316386       19.4357643859       -5.1298846549  W2        2620            0.0000000000
      7860      2620  TIP3      H2             14.9350016386       19.3750643859       -4.1979646549  W2        2620            0.0000000000
      7861      2621  TIP3      OH2            22.5984616386       18.3108043859        0.3117253451  W2        2621            0.0000000000
      7862      2621  TIP3      H1             21.6875716386       18.3674843859        0.6003253451  W2        2621            0.0000000000
      7863      2621  TIP3      H2             23.1037516386       18.2503543859        1.1224453451  W2        2621            0.0000000000
      7864      2622  TIP3      OH2            17.4268016386       19.9394343859       -0.8615146549  W2        2622            0.0000000000
      7865      2622  TIP3      H1             16.5376016386       20.0389843859       -1.2015546549  W2        2622            0.0000000000
      7866      2622  TIP3      H2             17.7232916386       19.0977343859       -1.2077246549  W2        2622            0.0000000000
      7867      2623  TIP3      OH2            21.0799816386       19.9396943859       -3.2050546549  W2        2623            0.0000000000
      7868      2623  TIP3      H1             22.0115316386       20.0686943859       -3.0267446549  W2        2623            0.0000000000
      7869      2623  TIP3      H2             20.8650116386       20.6091243859       -3.8545846549  W2        2623            0.0000000000
      7870      2624  TIP3      OH2            19.7540016386       21.1339143859       -5.6384446549  W2        2624            0.0000000000
      7871      2624  TIP3      H1             19.2115116386       20.7542943859       -6.3296846549  W2        2624            0.0000000000
      7872      2624  TIP3      H2             20.5874916386       21.3283843859       -6.0670346549  W2        2624            0.0000000000
      7873      2625  TIP3      OH2            18.9204016386       17.2347143859       -1.3828346549  W2        2625            0.0000000000
      7874      2625  TIP3      H1             18.6033516386       16.3322443859       -1.4182946549  W2        2625            0.0000000000
      7875      2625  TIP3      H2             19.7018116386       17.2364543859       -1.9356746549  W2        2625            0.0000000000
      7876      2626  TIP3      OH2            22.5450216386       19.4867143859        4.6127253451  W2        2626            0.0000000000
      7877      2626  TIP3      H1             21.7095516386       19.9406643859        4.7229653451  W2        2626            0.0000000000
      7878      2626  TIP3      H2             23.0690816386       19.7625643859        5.3647153451  W2        2626            0.0000000000
      7879      2627  TIP3      OH2            22.2385716386       22.9721643859        9.5949753451  W2        2627            0.0000000000
      7880      2627  TIP3      H1             21.9426516386       22.8064643859        8.6998853451  W2        2627            0.0000000000
      7881      2627  TIP3      H2             23.1700916386       22.7521943859        9.5843653451  W2        2627            0.0000000000
      7882      2628  TIP3      OH2            16.3438216386       23.3747143859       -5.9414546549  W2        2628            0.0000000000
      7883      2628  TIP3      H1             16.9598116386       24.0014343859       -5.5619746549  W2        2628            0.0000000000
      7884      2628  TIP3      H2             15.4820816386       23.6906943859       -5.6698046549  W2        2628            0.0000000000
      7885      2629  TIP3      OH2            16.8560316386       18.2084443859        6.9401453451  W2        2629            0.0000000000
      7886      2629  TIP3      H1             15.9632616386       18.5469843859        6.8725453451  W2        2629            0.0000000000
      7887      2629  TIP3      H2             16.7573116386       17.3530543859        7.3582253451  W2        2629            0.0000000000
      7888      2630  TIP3      OH2            20.1162216386       17.4737643859       -4.6125646549  W2        2630            0.0000000000
      7889      2630  TIP3      H1             20.0327016386       18.3620743859       -4.2659246549  W2        2630            0.0000000000
      7890      2630  TIP3      H2             21.0062516386       17.2084343859       -4.3808846549  W2        2630            0.0000000000
      7891      2631  TIP3      OH2            16.6906716386       20.5652843859       -6.4361746549  W2        2631            0.0000000000
      7892      2631  TIP3      H1             16.6459316386       21.5045943859       -6.2574746549  W2        2631            0.0000000000
      7893      2631  TIP3      H2             15.8029916386       20.3297743859       -6.7059646549  W2        2631            0.0000000000
      7894      2632  TIP3      OH2            17.4988716386       15.3469443859        2.2369253451  W2        2632            0.0000000000
      7895      2632  TIP3      H1             17.2698516386       15.4061943859        1.3094253451  W2        2632            0.0000000000
      7896      2632  TIP3      H2             17.0562116386       14.5554943859        2.5433353451  W2        2632            0.0000000000
      7897      2633  TIP3      OH2            16.4571716386       22.9107643859       10.1016653451  W2        2633            0.0000000000
      7898      2633  TIP3      H1             16.8652916386       22.0534243859        9.9807253451  W2        2633            0.0000000000
      7899      2633  TIP3      H2             16.1969316386       22.9248943859       11.0226953451  W2        2633            0.0000000000
      7900      2634  TIP3      OH2            20.4042016386       21.9193343859        7.4759553451  W2        2634            0.0000000000
      7901      2634  TIP3      H1             19.7858116386       22.5939943859        7.7564253451  W2        2634            0.0000000000
      7902      2634  TIP3      H2             20.7483216386       22.2407243859        6.6425753451  W2        2634            0.0000000000
      7903      2635  TIP3      OH2            22.1863116386       22.2698043859       -6.6176846549  W2        2635            0.0000000000
      7904      2635  TIP3      H1             22.0058116386       22.1149243859       -7.5448546549  W2        2635            0.0000000000
      7905      2635  TIP3      H2             23.1363616386       22.3776743859       -6.5728946549  W2        2635            0.0000000000
      7906      2636  TIP3      OH2            20.7435716386       19.2744143859        8.5582653451  W2        2636            0.0000000000
      7907      2636  TIP3      H1             20.8936616386       18.5455443859        7.9562353451  W2        2636            0.0000000000
      7908      2636  TIP3      H2             20.7458116386       20.0515843859        7.9994853451  W2        2636            0.0000000000
      7909      2637  TIP3      OH2            21.1561416386       17.6439943859        6.0510053451  W2        2637            0.0000000000
      7910      2637  TIP3      H1             21.6918916386       18.0956643859        5.3989353451  W2        2637            0.0000000000
      7911      2637  TIP3      H2             20.3041016386       17.5359743859        5.6284153451  W2        2637            0.0000000000
      7912      2638  TIP3      OH2            22.7379816386       23.0836143859        6.2905253451  W2        2638            0.0000000000
      7913      2638  TIP3      H1             23.4884616386       22.9273643859        5.7173053451  W2        2638            0.0000000000
      7914      2638  TIP3      H2             22.3988116386       23.9352743859        6.0150753451  W2        2638            0.0000000000
      7915      2639  TIP3      OH2            19.2222016386       20.4727643859       10.4698253451  W2        2639            0.0000000000
      7916      2639  TIP3      H1             18.4551016386       19.9402443859       10.2595853451  W2        2639            0.0000000000
      7917      2639  TIP3      H2             19.9011016386       20.1628043859        9.8704553451  W2        2639            0.0000000000
      7918      2640  TIP3      OH2            21.9616916386       15.1005643859        6.4823653451  W2        2640            0.0000000000
      7919      2640  TIP3      H1             21.8636516386       16.0468843859        6.3769853451  W2        2640            0.0000000000
      7920      2640  TIP3      H2             21.2193116386       14.7279443859        6.0067153451  W2        2640            0.0000000000
      7921      2641  TIP3      OH2            23.2257416386       19.4221043859       10.0462053451  W2        2641            0.0000000000
      7922      2641  TIP3      H1             22.9902816386       19.2027743859       10.9476953451  W2        2641            0.0000000000
      7923      2641  TIP3      H2             22.4424316386       19.2152243859        9.5364553451  W2        2641            0.0000000000
      7924      2642  TIP3      OH2            17.4024816386       18.3931443859       10.1742953451  W2        2642            0.0000000000
      7925      2642  TIP3      H1             17.6142216386       17.6867543859        9.5640453451  W2        2642            0.0000000000
      7926      2642  TIP3      H2             17.2912316386       17.9557443859       11.0184153451  W2        2642            0.0000000000
      7927      2643  TIP3      OH2            22.1835016386       14.3943043859        9.1536453451  W2        2643            0.0000000000
      7928      2643  TIP3      H1             22.8953416386       13.7545243859        9.1395553451  W2        2643            0.0000000000
      7929      2643  TIP3      H2             22.0825416386       14.6611343859        8.2399553451  W2        2643            0.0000000000
      7930      2644  TIP3      OH2            22.5372516386       16.0771443859       11.2072753451  W2        2644            0.0000000000
      7931      2644  TIP3      H1             22.4054716386       15.6015243859       10.3871253451  W2        2644            0.0000000000
      7932      2644  TIP3      H2             21.9379916386       16.8215043859       11.1519853451  W2        2644            0.0000000000
      7933      2645  TIP3      OH2            14.8483816386       19.4161443859        9.3408653451  W2        2645            0.0000000000
      7934      2645  TIP3      H1             15.7678716386       19.2939743859        9.5771753451  W2        2645            0.0000000000
      7935      2645  TIP3      H2             14.3988316386       18.6661143859        9.7302153451  W2        2645            0.0000000000
      7936      2646  TIP3      OH2            16.0696316386       17.7283043859        2.2321553451  W2        2646            0.0000000000
      7937      2646  TIP3      H1             16.5147916386       16.9365543859        2.5341253451  W2        2646            0.0000000000
      7938      2646  TIP3      H2             16.5359316386       18.4448243859        2.6627153451  W2        2646            0.0000000000
      7939      2647  TIP3      OH2            14.3736616386       20.7276043859        3.3011753451  W2        2647            0.0000000000
      7940      2647  TIP3      H1             14.8656416386       20.5066543859        2.5103753451  W2        2647            0.0000000000
      7941      2647  TIP3      H2             14.7357516386       21.5679443859        3.5821253451  W2        2647            0.0000000000
      7942      2648  TIP3      OH2            14.6873116386       16.9855143859       -2.6445846549  W2        2648            0.0000000000
      7943      2648  TIP3      H1             13.7621516386       17.1941743859       -2.7740346549  W2        2648            0.0000000000
      7944      2648  TIP3      H2             15.1413016386       17.4695943859       -3.3343546549  W2        2648            0.0000000000
      7945      2649  TIP3      OH2            14.6508516386       15.7234143859        5.6996653451  W2        2649            0.0000000000
      7946      2649  TIP3      H1             13.9859016386       15.4774443859        6.3427553451  W2        2649            0.0000000000
      7947      2649  TIP3      H2             14.2079816386       16.3454543859        5.1224653451  W2        2649            0.0000000000
      7948      2650  TIP3      OH2            17.1272316386       15.2304743859       -0.4695346549  W2        2650            0.0000000000
      7949      2650  TIP3      H1             16.3502116386       14.9959643859       -0.9769446549  W2        2650            0.0000000000
      7950      2650  TIP3      H2             17.6575916386       14.4336843859       -0.4607346549  W2        2650            0.0000000000
      7951      2651  TIP3      OH2            15.9635716386       15.0282843859       -4.6659246549  W2        2651            0.0000000000
      7952      2651  TIP3      H1             16.4026416386       15.6393343859       -5.2575746549  W2        2651            0.0000000000
      7953      2651  TIP3      H2             15.3298116386       15.5666943859       -4.1919246549  W2        2651            0.0000000000
      7954      2652  TIP3      OH2            21.7064916386       15.1571843859       -0.6562246549  W2        2652            0.0000000000
      7955      2652  TIP3      H1             22.5808316386       15.5456143859       -0.6857946549  W2        2652            0.0000000000
      7956      2652  TIP3      H2             21.5705716386       14.9419643859        0.2664953451  W2        2652            0.0000000000
      7957      2653  TIP3      OH2            17.8244816386       16.9444343859       -6.2235146549  W2        2653            0.0000000000
      7958      2653  TIP3      H1             18.3158216386       16.3146743859       -6.7509646549  W2        2653            0.0000000000
      7959      2653  TIP3      H2             18.4481116386       17.2403743859       -5.5603946549  W2        2653            0.0000000000
      7960      2654  TIP3      OH2            22.8504916386       17.2375843859       -3.7664646549  W2        2654            0.0000000000
      7961      2654  TIP3      H1             23.0286216386       16.5909043859       -3.0836046549  W2        2654            0.0000000000
      7962      2654  TIP3      H2             22.7971116386       18.0713543859       -3.2993546549  W2        2654            0.0000000000
      7963      2655  TIP3      OH2            17.0850316386       15.7446643859        9.0480853451  W2        2655            0.0000000000
      7964      2655  TIP3      H1             16.7188516386       14.9789243859        9.4905553451  W2        2655            0.0000000000
      7965      2655  TIP3      H2             17.9978816386       15.7736843859        9.3345953451  W2        2655            0.0000000000
      7966      2656  TIP3      OH2            19.0581116386       15.0951043859       10.5837953451  W2        2656            0.0000000000
      7967      2656  TIP3      H1             19.9564716386       14.8211243859       10.3991353451  W2        2656            0.0000000000
      7968      2656  TIP3      H2             18.6714216386       14.3527043859       11.0480553451  W2        2656            0.0000000000
      7969      2657  TIP3      OH2           -11.5065083614      -13.3252956141       18.3452153451  W2        2657            0.0000000000
      7970      2657  TIP3      H1            -11.4173983614      -12.3814756141       18.2129253451  W2        2657            0.0000000000
      7971      2657  TIP3      H2            -12.1447483614      -13.6006556141       17.6871553451  W2        2657            0.0000000000
      7972      2658  TIP3      OH2           -12.5733783614      -14.0702256141       21.7640353451  W2        2658            0.0000000000
      7973      2658  TIP3      H1            -12.6116283614      -14.7165956141       22.4689953451  W2        2658            0.0000000000
      7974      2658  TIP3      H2            -12.8957283614      -14.5367856141       20.9929053451  W2        2658            0.0000000000
      7975      2659  TIP3      OH2           -20.2048783614      -14.4560156141       23.3570253451  W2        2659            0.0000000000
      7976      2659  TIP3      H1            -20.1636683614      -15.0816856141       24.0802653451  W2        2659            0.0000000000
      7977      2659  TIP3      H2            -19.5021083614      -13.8321556141       23.5390653451  W2        2659            0.0000000000
      7978      2660  TIP3      OH2            -8.8673583614      -11.1311856141       20.0655453451  W2        2660            0.0000000000
      7979      2660  TIP3      H1             -9.3080883614      -11.8515856141       20.5161053451  W2        2660            0.0000000000
      7980      2660  TIP3      H2             -8.8803883614      -10.4104656141       20.6953153451  W2        2660            0.0000000000
      7981      2661  TIP3      OH2           -19.2815683614      -10.0061256141       21.8919353451  W2        2661            0.0000000000
      7982      2661  TIP3      H1            -19.6510483614      -10.8080756141       21.5223653451  W2        2661            0.0000000000
      7983      2661  TIP3      H2            -18.3404583614      -10.1746356141       21.9382753451  W2        2661            0.0000000000
      7984      2662  TIP3      OH2           -22.6715183614      -16.3458656141       17.2848153451  W2        2662            0.0000000000
      7985      2662  TIP3      H1            -23.1191783614      -15.4999956141       17.2664653451  W2        2662            0.0000000000
      7986      2662  TIP3      H2            -23.2323983614      -16.9254456141       16.7693253451  W2        2662            0.0000000000
      7987      2663  TIP3      OH2           -21.9609083614      -14.1839056141       19.4106153451  W2        2663            0.0000000000
      7988      2663  TIP3      H1            -21.7475583614      -14.9537456141       19.9379153451  W2        2663            0.0000000000
      7989      2663  TIP3      H2            -21.2231483614      -14.0942356141       18.8073753451  W2        2663            0.0000000000
      7990      2664  TIP3      OH2           -11.7558083614       -6.0270156141       20.2775853451  W2        2664            0.0000000000
      7991      2664  TIP3      H1            -11.1361683614       -6.7035456141       20.0045053451  W2        2664            0.0000000000
      7992      2664  TIP3      H2            -11.9640683614       -6.2449356141       21.1860753451  W2        2664            0.0000000000
      7993      2665  TIP3      OH2           -14.1839383614      -11.6380856141       22.1701353451  W2        2665            0.0000000000
      7994      2665  TIP3      H1            -13.8801483614      -12.3239456141       21.5755453451  W2        2665            0.0000000000
      7995      2665  TIP3      H2            -13.4625383614      -11.5192156141       22.7879353451  W2        2665            0.0000000000
      7996      2666  TIP3      OH2            -5.5209583614      -20.0365556141       23.0307553451  W2        2666            0.0000000000
      7997      2666  TIP3      H1             -5.4717383614      -19.4264356141       23.7666653451  W2        2666            0.0000000000
      7998      2666  TIP3      H2             -5.0954483614      -19.5754656141       22.3078653451  W2        2666            0.0000000000
      7999      2667  TIP3      OH2           -11.0432383614      -17.2438456141       22.4976153451  W2        2667            0.0000000000
      8000      2667  TIP3      H1            -10.9006483614      -18.1901456141       22.5177753451  W2        2667            0.0000000000
      8001      2667  TIP3      H2            -11.1493383614      -17.0368656141       21.5691053451  W2        2667            0.0000000000
      8002      2668  TIP3      OH2           -17.8884083614      -19.1422056141       19.7700953451  W2        2668            0.0000000000
      8003      2668  TIP3      H1            -17.8452983614      -18.2823556141       19.3517253451  W2        2668            0.0000000000
      8004      2668  TIP3      H2            -18.3459983614      -19.6947356141       19.1364153451  W2        2668            0.0000000000
      8005      2669  TIP3      OH2           -10.1661383614      -19.0116456141       18.1709253451  W2        2669            0.0000000000
      8006      2669  TIP3      H1             -9.5197083614      -19.3403256141       18.7956853451  W2        2669            0.0000000000
      8007      2669  TIP3      H2             -9.6561983614      -18.4937456141       17.5480653451  W2        2669            0.0000000000
      8008      2670  TIP3      OH2           -21.2682583614      -16.7456256141       20.5322353451  W2        2670            0.0000000000
      8009      2670  TIP3      H1            -20.6145983614      -17.2954556141       20.9642453451  W2        2670            0.0000000000
      8010      2670  TIP3      H2            -21.2443283614      -17.0197256141       19.6154353451  W2        2670            0.0000000000
      8011      2671  TIP3      OH2           -16.1118083614      -15.1954956141       19.7473853451  W2        2671            0.0000000000
      8012      2671  TIP3      H1            -15.4957083614      -15.7219556141       20.2567853451  W2        2671            0.0000000000
      8013      2671  TIP3      H2            -16.6979283614      -15.8356256141       19.3437453451  W2        2671            0.0000000000
      8014      2672  TIP3      OH2            -5.1294983614      -18.5586356141       25.2667353451  W2        2672            0.0000000000
      8015      2672  TIP3      H1             -5.8180383614      -17.9005656141       25.1713953451  W2        2672            0.0000000000
      8016      2672  TIP3      H2             -5.1140383614      -18.7558456141       26.2032753451  W2        2672            0.0000000000
      8017      2673  TIP3      OH2           -19.0782183614      -20.2243656141       23.8441753451  W2        2673            0.0000000000
      8018      2673  TIP3      H1            -19.2970483614      -19.6943056141       23.0777753451  W2        2673            0.0000000000
      8019      2673  TIP3      H2            -19.7461283614      -19.9978156141       24.4913153451  W2        2673            0.0000000000
      8020      2674  TIP3      OH2           -11.7092383614      -10.7242556141       17.3880853451  W2        2674            0.0000000000
      8021      2674  TIP3      H1            -12.0047283614      -11.0470256141       16.5367753451  W2        2674            0.0000000000
      8022      2674  TIP3      H2            -12.0334583614       -9.8245856141       17.4293453451  W2        2674            0.0000000000
      8023      2675  TIP3      OH2           -16.5090783614      -12.5487956141       24.1315453451  W2        2675            0.0000000000
      8024      2675  TIP3      H1            -17.2491683614      -11.9506456141       24.2350653451  W2        2675            0.0000000000
      8025      2675  TIP3      H2            -15.7951283614      -11.9948356141       23.8159053451  W2        2675            0.0000000000
      8026      2676  TIP3      OH2            -8.4022983614      -19.7207156141       20.1515153451  W2        2676            0.0000000000
      8027      2676  TIP3      H1             -8.6174983614      -20.4863756141       20.6841153451  W2        2676            0.0000000000
      8028      2676  TIP3      H2             -7.7465583614      -19.2482556141       20.6643653451  W2        2676            0.0000000000
      8029      2677  TIP3      OH2           -19.4844883614      -18.3321856141       21.7963953451  W2        2677            0.0000000000
      8030      2677  TIP3      H1            -18.8708583614      -17.6994256141       22.1696353451  W2        2677            0.0000000000
      8031      2677  TIP3      H2            -18.9724183614      -18.8046856141       21.1400853451  W2        2677            0.0000000000
      8032      2678  TIP3      OH2           -18.1016483614      -10.5844956141       24.9186953451  W2        2678            0.0000000000
      8033      2678  TIP3      H1            -18.1068883614       -9.7051456141       24.5406253451  W2        2678            0.0000000000
      8034      2678  TIP3      H2            -18.9552383614      -10.6680856141       25.3436853451  W2        2678            0.0000000000
      8035      2679  TIP3      OH2           -21.9805583614      -10.9137056141       15.7006253451  W2        2679            0.0000000000
      8036      2679  TIP3      H1            -22.2524683614      -10.6846056141       14.8119153451  W2        2679            0.0000000000
      8037      2679  TIP3      H2            -21.9349883614      -10.0758256141       16.1611553451  W2        2679            0.0000000000
      8038      2680  TIP3      OH2            -8.3555883614       -9.2921156141       22.4134753451  W2        2680            0.0000000000
      8039      2680  TIP3      H1             -9.2972183614       -9.2337256141       22.5751653451  W2        2680            0.0000000000
      8040      2680  TIP3      H2             -8.0789783614       -8.3860656141       22.2764453451  W2        2680            0.0000000000
      8041      2681  TIP3      OH2            -8.0548883614      -21.0055856141       23.8308653451  W2        2681            0.0000000000
      8042      2681  TIP3      H1             -8.7909683614      -20.3948756141       23.7929953451  W2        2681            0.0000000000
      8043      2681  TIP3      H2             -7.3714883614      -20.5906856141       23.3045053451  W2        2681            0.0000000000
      8044      2682  TIP3      OH2           -15.0517483614      -22.9188556141       21.2966653451  W2        2682            0.0000000000
      8045      2682  TIP3      H1            -15.1693283614      -23.8672556141       21.2424953451  W2        2682            0.0000000000
      8046      2682  TIP3      H2            -15.9067383614      -22.5862456141       21.5697753451  W2        2682            0.0000000000
      8047      2683  TIP3      OH2           -10.1034683614       -7.5107656141       19.0386353451  W2        2683            0.0000000000
      8048      2683  TIP3      H1             -9.6782383614       -8.2179756141       18.5535953451  W2        2683            0.0000000000
      8049      2683  TIP3      H2             -9.7864683614       -6.7094956141       18.6218553451  W2        2683            0.0000000000
      8050      2684  TIP3      OH2            -8.9438183614       -9.6099156141       17.5472953451  W2        2684            0.0000000000
      8051      2684  TIP3      H1             -9.2013383614      -10.2999056141       16.9358853451  W2        2684            0.0000000000
      8052      2684  TIP3      H2             -8.8727383614      -10.0527956141       18.3928853451  W2        2684            0.0000000000
      8053      2685  TIP3      OH2            -7.2577983614      -11.0432456141       26.0246453451  W2        2685            0.0000000000
      8054      2685  TIP3      H1             -7.1181683614      -11.6349956141       25.2853453451  W2        2685            0.0000000000
      8055      2685  TIP3      H2             -7.0905183614      -10.1706556141       25.6685253451  W2        2685            0.0000000000
      8056      2686  TIP3      OH2           -12.7852583614      -14.0812956141       15.7972453451  W2        2686            0.0000000000
      8057      2686  TIP3      H1            -13.4967083614      -13.5463256141       15.4452953451  W2        2686            0.0000000000
      8058      2686  TIP3      H2            -12.0942983614      -14.0260856141       15.1371353451  W2        2686            0.0000000000
      8059      2687  TIP3      OH2           -12.7313383614      -15.6238656141       12.8357453451  W2        2687            0.0000000000
      8060      2687  TIP3      H1            -12.0303483614      -15.6011756141       13.4871453451  W2        2687            0.0000000000
      8061      2687  TIP3      H2            -12.4290483614      -16.2518956141       12.1796753451  W2        2687            0.0000000000
      8062      2688  TIP3      OH2            -5.4158683614      -14.7034456141       24.0906853451  W2        2688            0.0000000000
      8063      2688  TIP3      H1             -6.0684583614      -14.0088856141       24.1797753451  W2        2688            0.0000000000
      8064      2688  TIP3      H2             -4.9508383614      -14.4933556141       23.2808453451  W2        2688            0.0000000000
      8065      2689  TIP3      OH2            -9.3794883614      -13.8719656141       16.7488353451  W2        2689            0.0000000000
      8066      2689  TIP3      H1            -10.1113883614      -13.6435956141       17.3218953451  W2        2689            0.0000000000
      8067      2689  TIP3      H2             -8.9322683614      -14.5856956141       17.2035853451  W2        2689            0.0000000000
      8068      2690  TIP3      OH2            -9.4821383614      -15.6977056141       25.8165353451  W2        2690            0.0000000000
      8069      2690  TIP3      H1             -9.4022283614      -14.9342656141       26.3883853451  W2        2690            0.0000000000
      8070      2690  TIP3      H2            -10.0833683614      -15.4184656141       25.1260453451  W2        2690            0.0000000000
      8071      2691  TIP3      OH2           -17.7341183614      -13.2413456141       18.6313353451  W2        2691            0.0000000000
      8072      2691  TIP3      H1            -18.0645983614      -13.6120056141       17.8130353451  W2        2691            0.0000000000
      8073      2691  TIP3      H2            -17.1457083614      -13.9119456141       18.9781653451  W2        2691            0.0000000000
      8074      2692  TIP3      OH2           -16.3673683614       -9.8132856141       21.3125553451  W2        2692            0.0000000000
      8075      2692  TIP3      H1            -16.4622383614      -10.3919756141       20.5560153451  W2        2692            0.0000000000
      8076      2692  TIP3      H2            -15.6380083614      -10.1847156141       21.8088353451  W2        2692            0.0000000000
      8077      2693  TIP3      OH2           -17.3675683614      -14.4727856141       22.2648353451  W2        2693            0.0000000000
      8078      2693  TIP3      H1            -16.8023183614      -14.3513656141       21.5019553451  W2        2693            0.0000000000
      8079      2693  TIP3      H2            -17.0486783614      -13.8352856141       22.9036853451  W2        2693            0.0000000000
      8080      2694  TIP3      OH2           -11.0583483614       -8.9695956141       22.9988853451  W2        2694            0.0000000000
      8081      2694  TIP3      H1            -11.2986883614       -8.3072856141       23.6468053451  W2        2694            0.0000000000
      8082      2694  TIP3      H2            -11.2565283614       -9.8040756141       23.4238453451  W2        2694            0.0000000000
      8083      2695  TIP3      OH2           -10.5085383614      -14.7096756141       14.4339553451  W2        2696            0.0000000000
      8084      2695  TIP3      H1             -9.9289883614      -14.5596456141       15.1808453451  W2        2696            0.0000000000
      8085      2695  TIP3      H2            -10.0945383614      -14.2389356141       13.7105953451  W2        2696            0.0000000000
      8086      2696  TIP3      OH2           -12.7820483614       -7.9728256141       17.8692653451  W2        2698            0.0000000000
      8087      2696  TIP3      H1            -12.3082883614       -7.6771956141       18.6466853451  W2        2698            0.0000000000
      8088      2696  TIP3      H2            -13.3451183614       -7.2346656141       17.6362253451  W2        2698            0.0000000000
      8089      2697  TIP3      OH2            -6.8096983614      -22.9596356141       14.2469253451  W2        2700            0.0000000000
      8090      2697  TIP3      H1             -7.7096283614      -22.8207356141       14.5419853451  W2        2700            0.0000000000
      8091      2697  TIP3      H2             -6.5578583614      -22.1281756141       13.8450953451  W2        2700            0.0000000000
      8092      2698  TIP3      OH2           -18.7438483614      -14.1719156141       16.2206153451  W2        2701            0.0000000000
      8093      2698  TIP3      H1            -19.0357183614      -13.4037456141       15.7297453451  W2        2701            0.0000000000
      8094      2698  TIP3      H2            -19.4183283614      -14.8312956141       16.0577553451  W2        2701            0.0000000000
      8095      2699  TIP3      OH2            -5.6205583614       -8.5933956141       12.6233153451  W2        2702            0.0000000000
      8096      2699  TIP3      H1             -5.5472083614       -7.6543756141       12.7938453451  W2        2702            0.0000000000
      8097      2699  TIP3      H2             -4.7150483614       -8.8985356141       12.5670453451  W2        2702            0.0000000000
      8098      2700  TIP3      OH2           -22.6508383614      -11.8089956141       25.0355953451  W2        2703            0.0000000000
      8099      2700  TIP3      H1            -23.1519983614      -11.8370556141       24.2205653451  W2        2703            0.0000000000
      8100      2700  TIP3      H2            -22.6454683614      -12.7146756141       25.3453253451  W2        2703            0.0000000000
      8101      2701  TIP3      OH2           -22.9005683614       -9.0286156141       21.9196153451  W2        2704            0.0000000000
      8102      2701  TIP3      H1            -21.9545083614       -9.1729156141       21.9005653451  W2        2704            0.0000000000
      8103      2701  TIP3      H2            -23.0129383614       -8.2443356141       22.4567353451  W2        2704            0.0000000000
      8104      2702  TIP3      OH2           -13.3097383614       -5.0163556141       16.2841853451  W2        2707            0.0000000000
      8105      2702  TIP3      H1            -13.3851383614       -5.1376356141       15.3377053451  W2        2707            0.0000000000
      8106      2702  TIP3      H2            -13.2768683614       -4.0670856141       16.4026453451  W2        2707            0.0000000000
      8107      2703  TIP3      OH2           -19.6563583614       -6.2276556141       18.0650853451  W2        2708            0.0000000000
      8108      2703  TIP3      H1            -19.5043183614       -6.5756156141       18.9437353451  W2        2708            0.0000000000
      8109      2703  TIP3      H2            -20.5073183614       -6.5839256141       17.8098053451  W2        2708            0.0000000000
      8110      2704  TIP3      OH2           -10.2081383614       -5.8623356141       13.2864253451  W2        2709            0.0000000000
      8111      2704  TIP3      H1             -9.8332983614       -6.6067256141       12.8156853451  W2        2709            0.0000000000
      8112      2704  TIP3      H2            -10.2037683614       -6.1322756141       14.2047553451  W2        2709            0.0000000000
      8113      2705  TIP3      OH2           -10.5393283614       -5.9366256141       16.0356453451  W2        2710            0.0000000000
      8114      2705  TIP3      H1            -11.4743483614       -5.8364356141       16.2143453451  W2        2710            0.0000000000
      8115      2705  TIP3      H2            -10.2591383614       -6.6460256141       16.6139653451  W2        2710            0.0000000000
      8116      2706  TIP3      OH2           -20.4017883614      -10.4854556141       26.0788753451  W2        2712            0.0000000000
      8117      2706  TIP3      H1            -20.1856583614      -10.8468956141       26.9384553451  W2        2712            0.0000000000
      8118      2706  TIP3      H2            -21.2573183614      -10.8600756141       25.8692253451  W2        2712            0.0000000000
      8119      2707  TIP3      OH2           -17.7829883614      -22.0154056141       22.0742953451  W2        2713            0.0000000000
      8120      2707  TIP3      H1            -18.6446183614      -22.1025856141       21.6665853451  W2        2713            0.0000000000
      8121      2707  TIP3      H2            -17.8054183614      -21.1593956141       22.5020553451  W2        2713            0.0000000000
      8122      2708  TIP3      OH2           -13.1202083614      -22.2933656141       25.4489953451  W2        2714            0.0000000000
      8123      2708  TIP3      H1            -12.6998983614      -22.7086556141       26.2020553451  W2        2714            0.0000000000
      8124      2708  TIP3      H2            -14.0532483614      -22.4720356141       25.5661953451  W2        2714            0.0000000000
      8125      2709  TIP3      OH2            -9.0312283614      -13.6768456141       12.0637453451  W2        2716            0.0000000000
      8126      2709  TIP3      H1             -8.9891483614      -13.8994556141       11.1337453451  W2        2716            0.0000000000
      8127      2709  TIP3      H2             -8.1820183614      -13.2781356141       12.2537353451  W2        2716            0.0000000000
      8128      2710  TIP3      OH2           -13.4584783614      -19.8010256141       12.7340753451  W2        2717            0.0000000000
      8129      2710  TIP3      H1            -13.7119983614      -19.7818656141       13.6568853451  W2        2717            0.0000000000
      8130      2710  TIP3      H2            -13.7152683614      -20.6724856141       12.4326953451  W2        2717            0.0000000000
      8131      2711  TIP3      OH2           -17.6919783614      -17.0499556141       23.1693153451  W2        2718            0.0000000000
      8132      2711  TIP3      H1            -18.3337683614      -17.0902256141       23.8783253451  W2        2718            0.0000000000
      8133      2711  TIP3      H2            -17.6547783614      -16.1234856141       22.9316153451  W2        2718            0.0000000000
      8134      2712  TIP3      OH2           -17.6950683614      -16.8289456141       18.0813153451  W2        2719            0.0000000000
      8135      2712  TIP3      H1            -18.5877783614      -17.1693356141       18.0226953451  W2        2719            0.0000000000
      8136      2712  TIP3      H2            -17.2444083614      -17.2058556141       17.3256353451  W2        2719            0.0000000000
      8137      2713  TIP3      OH2           -12.1595183614      -16.4129156141       16.8983953451  W2        2720            0.0000000000
      8138      2713  TIP3      H1            -12.5684883614      -15.5980556141       16.6068753451  W2        2720            0.0000000000
      8139      2713  TIP3      H2            -11.4388983614      -16.5529056141       16.2841053451  W2        2720            0.0000000000
      8140      2714  TIP3      OH2           -11.1547483614      -16.9668756141       19.7123653451  W2        2722            0.0000000000
      8141      2714  TIP3      H1            -11.3502983614      -16.3611956141       18.9974253451  W2        2722            0.0000000000
      8142      2714  TIP3      H2            -10.9734883614      -17.8003556141       19.2779953451  W2        2722            0.0000000000
      8143      2715  TIP3      OH2           -19.9419283614      -16.7296056141       25.0365153451  W2        2723            0.0000000000
      8144      2715  TIP3      H1            -19.9799883614      -16.3294456141       25.9052253451  W2        2723            0.0000000000
      8145      2715  TIP3      H2            -20.4328183614      -17.5463656141       25.1268053451  W2        2723            0.0000000000
      8146      2716  TIP3      OH2           -16.5761883614      -19.3553756141       11.8351153451  W2        2724            0.0000000000
      8147      2716  TIP3      H1            -17.0071183614      -19.8003656141       12.5648553451  W2        2724            0.0000000000
      8148      2716  TIP3      H2            -17.2943183614      -18.9837456141       11.3228653451  W2        2724            0.0000000000
      8149      2717  TIP3      OH2           -23.3338483614      -19.6134256141       18.8869853451  W2        2725            0.0000000000
      8150      2717  TIP3      H1            -22.7030783614      -19.6422156141       19.6063753451  W2        2725            0.0000000000
      8151      2717  TIP3      H2            -22.8844183614      -20.0385556141       18.1565753451  W2        2725            0.0000000000
      8152      2718  TIP3      OH2           -22.0596383614      -18.8672256141       14.3110253451  W2        2726            0.0000000000
      8153      2718  TIP3      H1            -21.5854683614      -18.2762356141       13.7261153451  W2        2726            0.0000000000
      8154      2718  TIP3      H2            -22.7769983614      -18.3369356141       14.6580353451  W2        2726            0.0000000000
      8155      2719  TIP3      OH2           -11.8908283614      -15.3287456141       24.3836053451  W2        2727            0.0000000000
      8156      2719  TIP3      H1            -11.5673483614      -15.9597756141       23.7406553451  W2        2727            0.0000000000
      8157      2719  TIP3      H2            -12.3308983614      -15.8635256141       25.0443453451  W2        2727            0.0000000000
      8158      2720  TIP3      OH2           -15.1135383614      -19.4011956141       19.1677253451  W2        2728            0.0000000000
      8159      2720  TIP3      H1            -16.0244283614      -19.3445156141       19.4563253451  W2        2728            0.0000000000
      8160      2720  TIP3      H2            -14.6082483614      -19.4616456141       19.9784453451  W2        2728            0.0000000000
      8161      2721  TIP3      OH2           -20.2851983614      -17.7725656141       17.9944853451  W2        2729            0.0000000000
      8162      2721  TIP3      H1            -21.1743983614      -17.6730156141       17.6544453451  W2        2729            0.0000000000
      8163      2721  TIP3      H2            -19.9887083614      -18.6142656141       17.6482753451  W2        2729            0.0000000000
      8164      2722  TIP3      OH2           -16.6320183614      -17.7723056141       15.6509453451  W2        2730            0.0000000000
      8165      2722  TIP3      H1            -15.7004683614      -17.6433056141       15.8292553451  W2        2730            0.0000000000
      8166      2722  TIP3      H2            -16.8469883614      -17.1028756141       15.0014153451  W2        2730            0.0000000000
      8167      2723  TIP3      OH2           -10.7083483614      -20.1665656141       22.4319053451  W2        2731            0.0000000000
      8168      2723  TIP3      H1            -11.3851883614      -20.0352556141       23.0958753451  W2        2731            0.0000000000
      8169      2723  TIP3      H2            -11.1938583614      -20.3216156141       21.6216753451  W2        2731            0.0000000000
      8170      2724  TIP3      OH2           -17.9579983614      -16.5780856141       13.2175553451  W2        2732            0.0000000000
      8171      2724  TIP3      H1            -18.5004883614      -16.9577056141       12.5263153451  W2        2732            0.0000000000
      8172      2724  TIP3      H2            -17.1245083614      -16.3836156141       12.7889653451  W2        2732            0.0000000000
      8173      2725  TIP3      OH2           -13.7935683614      -16.6138956141       21.0546853451  W2        2735            0.0000000000
      8174      2725  TIP3      H1            -13.2292283614      -17.1602356141       20.5076453451  W2        2735            0.0000000000
      8175      2725  TIP3      H2            -13.9412283614      -17.1357056141       21.8434453451  W2        2735            0.0000000000
      8176      2726  TIP3      OH2           -18.7915983614      -20.4772856141       17.4731653451  W2        2736            0.0000000000
      8177      2726  TIP3      H1            -19.1086483614      -21.3797556141       17.4377053451  W2        2736            0.0000000000
      8178      2726  TIP3      H2            -18.0101883614      -20.4755456141       16.9203253451  W2        2736            0.0000000000
      8179      2727  TIP3      OH2           -15.1669783614      -18.2252856141       23.4687253451  W2        2737            0.0000000000
      8180      2727  TIP3      H1            -16.0024483614      -17.7713356141       23.5789653451  W2        2737            0.0000000000
      8181      2727  TIP3      H2            -14.6429183614      -17.9494356141       24.2207153451  W2        2737            0.0000000000
      8182      2728  TIP3      OH2           -14.6227183614      -12.0125156141       15.1533653451  W2        2738            0.0000000000
      8183      2728  TIP3      H1            -15.3676183614      -12.5199856141       14.8311553451  W2        2738            0.0000000000
      8184      2728  TIP3      H2            -14.7569983614      -11.9637156141       16.0998453451  W2        2738            0.0000000000
      8185      2729  TIP3      OH2            -7.4728283614      -12.8796956141       23.9401253451  W2        2739            0.0000000000
      8186      2729  TIP3      H1             -6.8309483614      -12.4230656141       23.3963453451  W2        2739            0.0000000000
      8187      2729  TIP3      H2             -8.3031383614      -12.7664556141       23.4775353451  W2        2739            0.0000000000
      8188      2730  TIP3      OH2           -10.7250383614      -19.1985256141       13.3526253451  W2        2740            0.0000000000
      8189      2730  TIP3      H1            -11.6636183614      -19.0869656141       13.2015053451  W2        2740            0.0000000000
      8190      2730  TIP3      H2            -10.4278283614      -18.3418356141       13.6591953451  W2        2740            0.0000000000
      8191      2731  TIP3      OH2           -10.0066883614      -17.3312556141       15.0133653451  W2        2742            0.0000000000
      8192      2731  TIP3      H1             -9.1147883614      -17.4687556141       15.3324853451  W2        2742            0.0000000000
      8193      2731  TIP3      H2             -9.9503283614      -16.5406456141       14.4767153451  W2        2742            0.0000000000
      8194      2732  TIP3      OH2           -19.4978883614      -12.7175156141       20.9231553451  W2        2743            0.0000000000
      8195      2732  TIP3      H1            -18.7531683614      -12.7199456141       20.3218053451  W2        2743            0.0000000000
      8196      2732  TIP3      H2            -19.4202283614      -13.5411356141       21.4046653451  W2        2743            0.0000000000
      8197      2733  TIP3      OH2           -12.4973083614      -10.5540856141       14.1788253451  W2        2744            0.0000000000
      8198      2733  TIP3      H1            -12.7924683614       -9.7272956141       14.5603053451  W2        2744            0.0000000000
      8199      2733  TIP3      H2            -13.2003083614      -11.1733956141       14.3749653451  W2        2744            0.0000000000
      8200      2734  TIP3      OH2            -5.1218183614      -17.1218456141       14.7080353451  W2        2748            0.0000000000
      8201      2734  TIP3      H1             -5.6761883614      -17.5180456141       14.0357853451  W2        2748            0.0000000000
      8202      2734  TIP3      H2             -5.0214583614      -16.2113256141       14.4303653451  W2        2748            0.0000000000
      8203      2735  TIP3      OH2            -6.8266483614       -8.3358056141       15.1732453451  W2        2750            0.0000000000
      8204      2735  TIP3      H1             -7.1995383614       -9.1614256141       15.4823053451  W2        2750            0.0000000000
      8205      2735  TIP3      H2             -6.5492983614       -8.5188656141       14.2755853451  W2        2750            0.0000000000
      8206      2736  TIP3      OH2            -9.6662583614      -13.5278556141       22.1944353451  W2        2751            0.0000000000
      8207      2736  TIP3      H1            -10.5945683614      -13.7596656141       22.1673653451  W2        2751            0.0000000000
      8208      2736  TIP3      H2             -9.2151483614      -14.3048756141       21.8643153451  W2        2751            0.0000000000
      8209      2737  TIP3      OH2           -17.1229483614       -9.1996956141       18.3273053451  W2        2752            0.0000000000
      8210      2737  TIP3      H1            -16.5957283614       -8.4262556141       18.1271853451  W2        2752            0.0000000000
      8211      2737  TIP3      H2            -18.0030983614       -8.9747756141       18.0257053451  W2        2752            0.0000000000
      8212      2738  TIP3      OH2           -21.3681783614      -14.3372856141       12.9145453451  W2        2753            0.0000000000
      8213      2738  TIP3      H1            -20.7521883614      -13.7105656141       13.2940253451  W2        2753            0.0000000000
      8214      2738  TIP3      H2            -22.2299183614      -14.0213056141       13.1861953451  W2        2753            0.0000000000
      8215      2739  TIP3      OH2           -15.6957183614      -11.5367056141       17.9037353451  W2        2754            0.0000000000
      8216      2739  TIP3      H1            -15.9367183614      -10.6112656141       17.9452653451  W2        2754            0.0000000000
      8217      2739  TIP3      H2            -16.4363583614      -11.9955756141       18.3001253451  W2        2754            0.0000000000
      8218      2740  TIP3      OH2           -15.1810583614       -7.3873456141       24.2188453451  W2        2755            0.0000000000
      8219      2740  TIP3      H1            -14.8185883614       -6.5327856141       23.9852853451  W2        2755            0.0000000000
      8220      2740  TIP3      H2            -14.6495383614       -7.6791856141       24.9594753451  W2        2755            0.0000000000
      8221      2741  TIP3      OH2           -17.0126383614       -6.5149456141       17.4489553451  W2        2756            0.0000000000
      8222      2741  TIP3      H1            -17.9625883614       -6.4092056141       17.5002853451  W2        2756            0.0000000000
      8223      2741  TIP3      H2            -16.6608283614       -5.6942056141       17.7937053451  W2        2756            0.0000000000
      8224      2742  TIP3      OH2           -11.6369783614      -11.2882756141       23.9194053451  W2        2757            0.0000000000
      8225      2742  TIP3      H1            -12.0628483614      -11.5161056141       24.7458053451  W2        2757            0.0000000000
      8226      2742  TIP3      H2            -11.0563983614      -12.0270956141       23.7369353451  W2        2757            0.0000000000
      8227      2743  TIP3      OH2            -9.4340883614      -10.3592256141       12.9933053451  W2        2758            0.0000000000
      8228      2743  TIP3      H1             -9.0807783614      -10.7392456141       13.7976553451  W2        2758            0.0000000000
      8229      2743  TIP3      H2            -10.3827383614      -10.4527456141       13.0802353451  W2        2758            0.0000000000
      8230      2744  TIP3      OH2            -4.9306483614       -5.8799756141       13.1943253451  W2        2760            0.0000000000
      8231      2744  TIP3      H1             -4.1868583614       -5.2939256141       13.0544853451  W2        2760            0.0000000000
      8232      2744  TIP3      H2             -5.6248383614       -5.3113956141       13.5275653451  W2        2760            0.0000000000
      8233      2745  TIP3      OH2           -20.8559683614      -19.5035556141       25.7961453451  W2        2761            0.0000000000
      8234      2745  TIP3      H1            -21.7487383614      -19.1650156141       25.7285453451  W2        2761            0.0000000000
      8235      2745  TIP3      H2            -20.9546883614      -20.3589456141       26.2142253451  W2        2761            0.0000000000
      8236      2746  TIP3      OH2            -8.5681583614      -11.6870256141       15.2200953451  W2        2762            0.0000000000
      8237      2746  TIP3      H1             -8.8453983614      -12.4150956141       15.7762053451  W2        2762            0.0000000000
      8238      2746  TIP3      H2             -7.6408583614      -11.5678256141       15.4253553451  W2        2762            0.0000000000
      8239      2747  TIP3      OH2           -21.2047683614       -7.6991156141       24.2310853451  W2        2763            0.0000000000
      8240      2747  TIP3      H1            -20.9877383614       -8.6308756141       24.2000553451  W2        2763            0.0000000000
      8241      2747  TIP3      H2            -20.9584183614       -7.4246156141       25.1143653451  W2        2763            0.0000000000
      8242      2748  TIP3      OH2           -15.3433083614       -9.2476156141       11.4403053451  W2        2764            0.0000000000
      8243      2748  TIP3      H1            -15.1043283614       -9.9958056141       10.8931953451  W2        2764            0.0000000000
      8244      2748  TIP3      H2            -15.6121783614       -9.6354456141       12.2730853451  W2        2764            0.0000000000
      8245      2749  TIP3      OH2           -16.4062483614       -9.6772356141       13.8965653451  W2        2765            0.0000000000
      8246      2749  TIP3      H1            -16.2594483614      -10.1972556141       14.6866553451  W2        2765            0.0000000000
      8247      2749  TIP3      H2            -16.4090783614       -8.7704756141       14.2031553451  W2        2765            0.0000000000
      8248      2750  TIP3      OH2           -19.9531383614      -12.4249056141       14.4071053451  W2        2766            0.0000000000
      8249      2750  TIP3      H1            -20.6392083614      -12.0726556141       14.9740753451  W2        2766            0.0000000000
      8250      2750  TIP3      H2            -19.4303483614      -11.6619456141       14.1605353451  W2        2766            0.0000000000
      8251      2751  TIP3      OH2           -12.1216283614      -19.7625256141       24.6860053451  W2        2767            0.0000000000
      8252      2751  TIP3      H1            -11.4228383614      -19.6886556141       25.3359753451  W2        2767            0.0000000000
      8253      2751  TIP3      H2            -12.5024883614      -20.6270256141       24.8402953451  W2        2767            0.0000000000
      8254      2752  TIP3      OH2           -11.3371383614      -20.1103556141       15.7832353451  W2        2768            0.0000000000
      8255      2752  TIP3      H1            -11.1173083614      -19.6388156141       14.9797753451  W2        2768            0.0000000000
      8256      2752  TIP3      H2            -10.7787383614      -19.7160956141       16.4532953451  W2        2768            0.0000000000
      8257      2753  TIP3      OH2           -13.6685283614       -7.9798756141       14.6459853451  W2        2769            0.0000000000
      8258      2753  TIP3      H1            -14.4849183614       -7.4829056141       14.6984153451  W2        2769            0.0000000000
      8259      2753  TIP3      H2            -13.1388983614       -7.5045256141       14.0058653451  W2        2769            0.0000000000
      8260      2754  TIP3      OH2           -14.1371483614      -18.3824756141       16.6180753451  W2        2770            0.0000000000
      8261      2754  TIP3      H1            -13.3248883614      -17.8781556141       16.6642453451  W2        2770            0.0000000000
      8262      2754  TIP3      H2            -14.3818483614      -18.5275056141       17.5320353451  W2        2770            0.0000000000
      8263      2755  TIP3      OH2           -13.6015083614      -17.3962056141       25.8027353451  W2        2771            0.0000000000
      8264      2755  TIP3      H1            -13.4824783614      -16.8226656141       26.5597753451  W2        2771            0.0000000000
      8265      2755  TIP3      H2            -12.9460483614      -18.0842656141       25.9175153451  W2        2771            0.0000000000
      8266      2756  TIP3      OH2           -13.2534783614      -21.3011756141       17.5561853451  W2        2772            0.0000000000
      8267      2756  TIP3      H1            -13.6001283614      -20.6841156141       18.2006153451  W2        2772            0.0000000000
      8268      2756  TIP3      H2            -12.5947883614      -20.8006056141       17.0747353451  W2        2772            0.0000000000
      8269      2757  TIP3      OH2           -16.3302183614       -6.9361556141       14.6276753451  W2        2773            0.0000000000
      8270      2757  TIP3      H1            -16.1693483614       -6.1364056141       14.1269353451  W2        2773            0.0000000000
      8271      2757  TIP3      H2            -16.5274383614       -6.6295556141       15.5127353451  W2        2773            0.0000000000
      8272      2758  TIP3      OH2           -17.5957783614      -20.2382356141       14.2434353451  W2        2774            0.0000000000
      8273      2758  TIP3      H1            -17.6792983614      -19.3499256141       14.5900753451  W2        2774            0.0000000000
      8274      2758  TIP3      H2            -16.7057483614      -20.5035656141       14.4751153451  W2        2774            0.0000000000
      8275      2759  TIP3      OH2            -8.7948283614      -15.7390756141       20.7334353451  W2        2776            0.0000000000
      8276      2759  TIP3      H1             -9.5923883614      -16.1540556141       20.4049353451  W2        2776            0.0000000000
      8277      2759  TIP3      H2             -8.3497183614      -16.4297056141       21.2244853451  W2        2776            0.0000000000
      8278      2760  TIP3      OH2           -19.3372483614       -9.8110156141       13.3038853451  W2        2777            0.0000000000
      8279      2760  TIP3      H1            -18.7450983614       -9.1115356141       13.5801253451  W2        2777            0.0000000000
      8280      2760  TIP3      H2            -18.8779483614      -10.2440656141       12.5843453451  W2        2777            0.0000000000
      8281      2761  TIP3      OH2           -21.0213283614      -17.1467156141       12.4198253451  W2        2778            0.0000000000
      8282      2761  TIP3      H1            -21.0660683614      -16.2074056141       12.5985253451  W2        2778            0.0000000000
      8283      2761  TIP3      H2            -21.9090083614      -17.3822256141       12.1500353451  W2        2778            0.0000000000
      8284      2762  TIP3      OH2            -7.7083683614       -6.4828256141       22.3557853451  W2        2779            0.0000000000
      8285      2762  TIP3      H1             -7.8639383614       -5.8043856141       21.6987153451  W2        2779            0.0000000000
      8286      2762  TIP3      H2             -6.7757283614       -6.4108956141       22.5588453451  W2        2779            0.0000000000
      8287      2763  TIP3      OH2           -20.2131283614      -22.3650556141       21.0929253451  W2        2780            0.0000000000
      8288      2763  TIP3      H1            -20.4421483614      -22.3058056141       20.1654253451  W2        2780            0.0000000000
      8289      2763  TIP3      H2            -20.6557883614      -23.1565056141       21.3993353451  W2        2780            0.0000000000
      8290      2764  TIP3      OH2           -21.2827983614       -8.4243456141       17.2535053451  W2        2781            0.0000000000
      8291      2764  TIP3      H1            -22.1149383614       -7.9520756141       17.2806453451  W2        2781            0.0000000000
      8292      2764  TIP3      H2            -20.7369683614       -7.9145856141       16.6548153451  W2        2781            0.0000000000
      8293      2765  TIP3      OH2           -13.3051283614       -7.3844756141       11.5789053451  W2        2784            0.0000000000
      8294      2765  TIP3      H1            -13.9490283614       -8.0156156141       11.9002753451  W2        2784            0.0000000000
      8295      2765  TIP3      H2            -12.5432983614       -7.9156756141       11.3472553451  W2        2784            0.0000000000
      8296      2766  TIP3      OH2            -8.7008383614       -7.5674856141       11.8127053451  W2        2786            0.0000000000
      8297      2766  TIP3      H1             -8.4177983614       -8.3619656141       12.2653953451  W2        2786            0.0000000000
      8298      2766  TIP3      H2             -7.9610483614       -7.3343856141       11.2518153451  W2        2786            0.0000000000
      8299      2767  TIP3      OH2           -17.7461083614      -11.6579956141       11.6701953451  W2        2788            0.0000000000
      8300      2767  TIP3      H1            -17.6816983614      -12.4520356141       12.2008353451  W2        2788            0.0000000000
      8301      2767  TIP3      H2            -17.0931883614      -11.7767156141       10.9803953451  W2        2788            0.0000000000
      8302      2768  TIP3      OH2           -12.3937683614      -10.6108256141       11.4059953451  W2        2790            0.0000000000
      8303      2768  TIP3      H1            -12.6623583614      -10.4306156141       12.3068853451  W2        2790            0.0000000000
      8304      2768  TIP3      H2            -12.6002083614      -11.5362056141       11.2745753451  W2        2790            0.0000000000
      8305      2769  TIP3      OH2           -16.5967283614      -13.6853756141       13.9759953451  W2        2793            0.0000000000
      8306      2769  TIP3      H1            -17.0565283614      -14.1695456141       14.6618453451  W2        2793            0.0000000000
      8307      2769  TIP3      H2            -16.3418583614      -14.3538356141       13.3400453451  W2        2793            0.0000000000
      8308      2770  TIP3      OH2           -15.5256883614      -15.4421956141       12.2383153451  W2        2795            0.0000000000
      8309      2770  TIP3      H1            -15.7061883614      -15.5970756141       11.3111453451  W2        2795            0.0000000000
      8310      2770  TIP3      H2            -14.5756383614      -15.3343256141       12.2831053451  W2        2795            0.0000000000
      8311      2771  TIP3      OH2            -6.1358583614      -13.0877756141       11.6841253451  W2        2797            0.0000000000
      8312      2771  TIP3      H1             -6.4093783614      -13.5122256141       10.8709553451  W2        2797            0.0000000000
      8313      2771  TIP3      H2             -6.0964483614      -12.1563256141       11.4671653451  W2        2797            0.0000000000
      8314      2772  TIP3      OH2           -16.5558583614      -20.0680056141       24.9070053451  W2        2799            0.0000000000
      8315      2772  TIP3      H1            -16.0201083614      -19.6163356141       24.2549353451  W2        2799            0.0000000000
      8316      2772  TIP3      H2            -17.4078983614      -20.1760256141       24.4844153451  W2        2799            0.0000000000
      8317      2773  TIP3      OH2           -14.9740183614      -14.6283856141       25.1465253451  W2        2800            0.0000000000
      8318      2773  TIP3      H1            -14.2235383614      -14.7846356141       24.5733053451  W2        2800            0.0000000000
      8319      2773  TIP3      H2            -15.3131883614      -13.7767256141       24.8710753451  W2        2800            0.0000000000
      8320      2774  TIP3      OH2           -15.7503083614      -22.6114356141       25.3383653451  W2        2804            0.0000000000
      8321      2774  TIP3      H1            -15.8483483614      -21.6651156141       25.2329853451  W2        2804            0.0000000000
      8322      2774  TIP3      H2            -16.4926883614      -22.9840556141       24.8627153451  W2        2804            0.0000000000
      8323      2775  TIP3      OH2           -15.6285183614       -4.7518256141       13.2396753451  W2        2811            0.0000000000
      8324      2775  TIP3      H1            -14.6954483614       -4.5939556141       13.3835153451  W2        2811            0.0000000000
      8325      2775  TIP3      H2            -15.8926383614       -4.0765256141       12.6148253451  W2        2811            0.0000000000
      8326      2776  TIP3      OH2           -22.0600283614      -10.1154456141       12.7224853451  W2        2812            0.0000000000
      8327      2776  TIP3      H1            -21.1461083614      -10.0365556141       12.9958753451  W2        2812            0.0000000000
      8328      2776  TIP3      H2            -22.0527183614      -10.8024856141       12.0560453451  W2        2812            0.0000000000
      8329      2777  TIP3      OH2           -23.4109683614       -4.7225956141       17.7998753451  W2        2813            0.0000000000
      8330      2777  TIP3      H1            -24.0582583614       -5.1844256141       17.2669953451  W2        2813            0.0000000000
      8331      2777  TIP3      H2            -23.0565083614       -5.3942656141       18.3824953451  W2        2813            0.0000000000
      8332      2778  TIP3      OH2           -22.5410483614       -6.6418956141       19.6044953451  W2        2814            0.0000000000
      8333      2778  TIP3      H1            -22.8753683614       -7.5221656141       19.7765153451  W2        2814            0.0000000000
      8334      2778  TIP3      H2            -22.3188083614       -6.2963956141       20.4690553451  W2        2814            0.0000000000
      8335      2779  TIP3      OH2            -4.9925683614       -5.8322556141       22.5849753451  W2        2815            0.0000000000
      8336      2779  TIP3      H1             -5.0138983614       -5.6474156141       23.5239153451  W2        2815            0.0000000000
      8337      2779  TIP3      H2             -4.3019483614       -5.2638556141       22.2441153451  W2        2815            0.0000000000
      8338      2780  TIP3      OH2            -5.4292783614       -6.2651456141       25.5068853451  W2        2816            0.0000000000
      8339      2780  TIP3      H1             -5.9164083614       -7.0007356141       25.1356253451  W2        2816            0.0000000000
      8340      2780  TIP3      H2             -4.8800083614       -6.6587556141       26.1848253451  W2        2816            0.0000000000
      8341      2781  TIP3      OH2            -5.6775783614      -12.2189656141       15.6591653451  W2        2818            0.0000000000
      8342      2781  TIP3      H1             -4.8274383614      -11.7978756141       15.7863253451  W2        2818            0.0000000000
      8343      2781  TIP3      H2             -5.6720683614      -12.9589556141       16.2663053451  W2        2818            0.0000000000
      8344      2782  TIP3      OH2            -5.2830183614      -14.1652256141       17.4827353451  W2        2819            0.0000000000
      8345      2782  TIP3      H1             -6.0095583614      -14.6449656141       17.8804953451  W2        2819            0.0000000000
      8346      2782  TIP3      H2             -4.7016883614      -13.9597556141       18.2148953451  W2        2819            0.0000000000
      8347      2783  TIP3      OH2            -5.5238983614      -11.3804756141       22.4304953451  W2        2820            0.0000000000
      8348      2783  TIP3      H1             -4.6904783614      -11.7584756141       22.1498553451  W2        2820            0.0000000000
      8349      2783  TIP3      H2             -5.4118683614      -10.4373556141       22.3114053451  W2        2820            0.0000000000
      8350      2784  TIP3      OH2            -7.0376683614       -8.5027256141       24.7373353451  W2        2821            0.0000000000
      8351      2784  TIP3      H1             -7.6851383614       -8.1775756141       25.3628553451  W2        2821            0.0000000000
      8352      2784  TIP3      H2             -7.5552683614       -8.9429556141       24.0631653451  W2        2821            0.0000000000
      8353      2785  TIP3      OH2            -5.0147083614      -14.2643756141       13.8738653451  W2        2822            0.0000000000
      8354      2785  TIP3      H1             -5.5365983614      -13.9079656141       13.1549553451  W2        2822            0.0000000000
      8355      2785  TIP3      H2             -5.0477883614      -13.5895956141       14.5519553451  W2        2822            0.0000000000
      8356      2786  TIP3      OH2            -6.6658083614      -17.0248156141       12.4245753451  W2        2823            0.0000000000
      8357      2786  TIP3      H1             -6.5693683614      -16.3581156141       11.7445453451  W2        2823            0.0000000000
      8358      2786  TIP3      H2             -6.8058483614      -17.8401856141       11.9431253451  W2        2823            0.0000000000
      8359      2787  TIP3      OH2            -7.4963383614      -15.6445756141       18.0456053451  W2        2824            0.0000000000
      8360      2787  TIP3      H1             -7.6464583614      -16.5897156141       18.0253853451  W2        2824            0.0000000000
      8361      2787  TIP3      H2             -7.8498883614      -15.3634356141       18.8895153451  W2        2824            0.0000000000
      8362      2788  TIP3      OH2           -22.4610983614      -13.5663556141       22.0559853451  W2        2825            0.0000000000
      8363      2788  TIP3      H1            -22.2768083614      -13.6481856141       21.1202753451  W2        2825            0.0000000000
      8364      2788  TIP3      H2            -21.6118083614      -13.6906556141       22.4796253451  W2        2825            0.0000000000
      8365      2789  TIP3      OH2            -7.4184283614      -19.6168356141       11.5421253451  W2        2828            0.0000000000
      8366      2789  TIP3      H1             -6.8078483614      -19.9881556141       12.1789453451  W2        2828            0.0000000000
      8367      2789  TIP3      H2             -8.2552783614      -20.0381456141       11.7381253451  W2        2828            0.0000000000
      8368      2790  TIP3      OH2            -7.7858583614      -18.0619956141       16.5081153451  W2        2829            0.0000000000
      8369      2790  TIP3      H1             -7.5061483614      -18.9689556141       16.6322853451  W2        2829            0.0000000000
      8370      2790  TIP3      H2             -7.0266883614      -17.6278456141       16.1190353451  W2        2829            0.0000000000
      8371      2791  TIP3      OH2            -7.1740283614      -17.4802556141       21.9440053451  W2        2830            0.0000000000
      8372      2791  TIP3      H1             -6.2412283614      -17.2682656141       21.9096053451  W2        2830            0.0000000000
      8373      2791  TIP3      H2             -7.4092783614      -17.3790456141       22.8663053451  W2        2830            0.0000000000
      8374      2792  TIP3      OH2            -7.1448383614      -16.7437256141       24.7199453451  W2        2831            0.0000000000
      8375      2792  TIP3      H1             -7.9877083614      -16.4756856141       25.0859253451  W2        2831            0.0000000000
      8376      2792  TIP3      H2             -6.7024083614      -15.9215356141       24.5090553451  W2        2831            0.0000000000
      8377      2793  TIP3      OH2            -7.1723783614      -20.7990656141       16.5563153451  W2        2834            0.0000000000
      8378      2793  TIP3      H1             -6.9898783614      -21.2479156141       17.3818153451  W2        2834            0.0000000000
      8379      2793  TIP3      H2             -7.7720883614      -21.3836256141       16.0927753451  W2        2834            0.0000000000
      8380      2794  TIP3      OH2           -21.6423683614      -19.9836956141       21.0881553451  W2        2835            0.0000000000
      8381      2794  TIP3      H1            -21.1972083614      -20.7754456141       21.3901253451  W2        2835            0.0000000000
      8382      2794  TIP3      H2            -21.1760683614      -19.2671756141       21.5187153451  W2        2835            0.0000000000
      8383      2795  TIP3      OH2           -23.3383383614      -16.9843956141       22.1571753451  W2        2836            0.0000000000
      8384      2795  TIP3      H1            -22.8463583614      -17.2053456141       21.3663753451  W2        2836            0.0000000000
      8385      2795  TIP3      H2            -22.9762483614      -16.1440556141       22.4381253451  W2        2836            0.0000000000
      8386      2796  TIP3      OH2            -5.3057583614      -20.7312556141       13.0843453451  W2        2838            0.0000000000
      8387      2796  TIP3      H1             -4.8934983614      -21.4526856141       12.6091453451  W2        2838            0.0000000000
      8388      2796  TIP3      H2             -4.6241083614      -20.0617956141       13.1427753451  W2        2838            0.0000000000
      8389      2797  TIP3      OH2           -23.0246883614      -20.7264856141       16.2114153451  W2        2839            0.0000000000
      8390      2797  TIP3      H1            -23.9498483614      -20.5178256141       16.0819653451  W2        2839            0.0000000000
      8391      2797  TIP3      H2            -22.5706983614      -20.2424056141       15.5216453451  W2        2839            0.0000000000
      8392      2798  TIP3      OH2            -8.2539683614       -5.7423156141       18.1571553451  W2        2840            0.0000000000
      8393      2798  TIP3      H1             -7.6016783614       -6.0901056141       17.5490653451  W2        2840            0.0000000000
      8394      2798  TIP3      H2             -7.7435883614       -5.2539956141       18.8031253451  W2        2840            0.0000000000
      8395      2799  TIP3      OH2           -23.0611483614      -21.9885856141       24.5556653451  W2        2841            0.0000000000
      8396      2799  TIP3      H1            -23.7260983614      -22.2345556141       25.1987553451  W2        2841            0.0000000000
      8397      2799  TIP3      H2            -23.5040183614      -21.3665456141       23.9784653451  W2        2841            0.0000000000
      8398      2800  TIP3      OH2           -17.9149283614       -7.8390556141       24.9586453451  W2        2843            0.0000000000
      8399      2800  TIP3      H1            -18.3398183614       -7.0292056141       24.6761053451  W2        2843            0.0000000000
      8400      2800  TIP3      H2            -17.0106483614       -7.7536456141       24.6566253451  W2        2843            0.0000000000
      8401      2801  TIP3      OH2           -20.5132583614       -4.5826656141       25.0061753451  W2        2847            0.0000000000
      8402      2801  TIP3      H1            -21.2336183614       -4.1425656141       24.5549453451  W2        2847            0.0000000000
      8403      2801  TIP3      H2            -20.8788583614       -4.8331956141       25.8545753451  W2        2847            0.0000000000
      8404      2802  TIP3      OH2           -18.0459983614       -4.9822756141       24.0358953451  W2        2848            0.0000000000
      8405      2802  TIP3      H1            -18.9107783614       -4.9104256141       24.4399053451  W2        2848            0.0000000000
      8406      2802  TIP3      H2            -18.1010983614       -4.4355456141       23.2521453451  W2        2848            0.0000000000
      8407      2803  TIP3      OH2           -13.3354383614       -5.0943856141       23.2114953451  W2        2849            0.0000000000
      8408      2803  TIP3      H1            -13.7920383614       -4.5654156141       22.5573353451  W2        2849            0.0000000000
      8409      2803  TIP3      H2            -13.1726383614       -4.4912456141       23.9367253451  W2        2849            0.0000000000
      8410      2804  TIP3      OH2           -11.0078083614       -6.2164256141       24.1565253451  W2        2850            0.0000000000
      8411      2804  TIP3      H1            -11.9124383614       -6.0514056141       23.8907353451  W2        2850            0.0000000000
      8412      2804  TIP3      H2            -10.5789483614       -5.3632056141       24.0908653451  W2        2850            0.0000000000
      8413      2805  TIP3      OH2            -8.4036183614       -4.6465156141       24.4513053451  W2        2851            0.0000000000
      8414      2805  TIP3      H1             -8.5854183614       -3.7306256141       24.2407953451  W2        2851            0.0000000000
      8415      2805  TIP3      H2             -8.2268383614       -5.0568056141       23.6047653451  W2        2851            0.0000000000
      8416      2806  TIP3      OH2           -21.0984483614       -5.9594156141       21.9163553451  W2        2852            0.0000000000
      8417      2806  TIP3      H1            -21.1168483614       -6.3849056141       22.7735853451  W2        2852            0.0000000000
      8418      2806  TIP3      H2            -20.2936583614       -6.2779156141       21.5075753451  W2        2852            0.0000000000
      8419      2807  TIP3      OH2           -18.9571383614       -7.2495456141       20.5713453451  W2        2853            0.0000000000
      8420      2807  TIP3      H1            -19.1760683614       -8.1658056141       20.7409453451  W2        2853            0.0000000000
      8421      2807  TIP3      H2            -18.1329183614       -7.1095056141       21.0374853451  W2        2853            0.0000000000
      8422      2808  TIP3      OH2           -16.4198883614       -6.7796156141       21.4201453451  W2        2854            0.0000000000
      8423      2808  TIP3      H1            -16.2073183614       -7.6677156141       21.1332353451  W2        2854            0.0000000000
      8424      2808  TIP3      H2            -16.3553783614       -6.8138456141       22.3745453451  W2        2854            0.0000000000
      8425      2809  TIP3      OH2           -12.9115183614      -21.1155556141       20.5644753451  W2        2855            0.0000000000
      8426      2809  TIP3      H1            -13.5858383614      -21.7449956141       20.8200553451  W2        2855            0.0000000000
      8427      2809  TIP3      H2            -12.3475983614      -21.5996656141       19.9612653451  W2        2855            0.0000000000
      8428      2810  TIP3      OH2            -7.7687983614      -23.0081556141       20.6771853451  W2        2856            0.0000000000
      8429      2810  TIP3      H1             -7.1650383614      -22.4606156141       20.1752853451  W2        2856            0.0000000000
      8430      2810  TIP3      H2             -8.6385983614      -22.6891156141       20.4365953451  W2        2856            0.0000000000
      8431      2811  TIP3      OH2            -6.0417583614      -21.8692856141       19.0102753451  W2        2857            0.0000000000
      8432      2811  TIP3      H1             -5.4300083614      -22.3837156141       18.4836353451  W2        2857            0.0000000000
      8433      2811  TIP3      H2             -5.6594183614      -20.9920756141       19.0337153451  W2        2857            0.0000000000
      8434      2812  TIP3      OH2           -20.5847683614      -22.4815256141       18.3864653451  W2        2858            0.0000000000
      8435      2812  TIP3      H1            -21.3617883614      -22.7160356141       17.8790553451  W2        2858            0.0000000000
      8436      2812  TIP3      H2            -20.0544083614      -23.2783156141       18.3952653451  W2        2858            0.0000000000
      8437      2813  TIP3      OH2           -21.7484283614      -22.6837156141       14.1900753451  W2        2859            0.0000000000
      8438      2813  TIP3      H1            -21.3093583614      -22.0726656141       13.5984253451  W2        2859            0.0000000000
      8439      2813  TIP3      H2            -22.3821883614      -22.1453056141       14.6640753451  W2        2859            0.0000000000
      8440      2814  TIP3      OH2           -16.0055083614      -22.5548156141       18.1997753451  W2        2860            0.0000000000
      8441      2814  TIP3      H1            -15.1311683614      -22.1663856141       18.1702053451  W2        2860            0.0000000000
      8442      2814  TIP3      H2            -16.1414283614      -22.7700356141       19.1224953451  W2        2860            0.0000000000
      8443      2815  TIP3      OH2           -10.4486683614      -22.5248356141       19.8489453451  W2        2861            0.0000000000
      8444      2815  TIP3      H1            -10.3725083614      -22.4296756141       18.8995453451  W2        2861            0.0000000000
      8445      2815  TIP3      H2            -10.7237483614      -23.4325456141       19.9778553451  W2        2861            0.0000000000
      8446      2816  TIP3      OH2            -9.0954083614      -22.4990556141       15.5414453451  W2        2862            0.0000000000
      8447      2816  TIP3      H1             -9.7982983614      -21.8841356141       15.3315853451  W2        2862            0.0000000000
      8448      2816  TIP3      H2             -9.5402683614      -23.3363856141       15.6725353451  W2        2862            0.0000000000
      8449      2817  TIP3      OH2           -21.8474783614       -6.7354956141       15.0875853451  W2        2863            0.0000000000
      8450      2817  TIP3      H1            -22.5324883614       -6.7736056141       14.4200953451  W2        2863            0.0000000000
      8451      2817  TIP3      H2            -21.8437583614       -5.8227356141       15.3757953451  W2        2863            0.0000000000
      8452      2818  TIP3      OH2           -19.8875183614      -20.7675656141       12.6324853451  W2        2864            0.0000000000
      8453      2818  TIP3      H1            -19.3961783614      -21.3973256141       12.1050353451  W2        2864            0.0000000000
      8454      2818  TIP3      H2            -19.2638883614      -20.4716256141       13.2956053451  W2        2864            0.0000000000
      8455      2819  TIP3      OH2           -14.8615083614      -20.4744156141       15.0895353451  W2        2865            0.0000000000
      8456      2819  TIP3      H1            -14.6833783614      -21.1210956141       15.7723953451  W2        2865            0.0000000000
      8457      2819  TIP3      H2            -14.9148883614      -19.6406456141       15.5566453451  W2        2865            0.0000000000
      8458      2820  TIP3      OH2           -12.9831283614       -5.5260056141       13.4852053451  W2        2866            0.0000000000
      8459      2820  TIP3      H1            -12.1171083614       -5.1592656141       13.3070253451  W2        2866            0.0000000000
      8460      2820  TIP3      H2            -13.2298483614       -5.9652056141       12.6712853451  W2        2866            0.0000000000
      8461      2821  TIP3      OH2            -6.2741683614       -5.9629756141       16.1643153451  W2        2867            0.0000000000
      8462      2821  TIP3      H1             -6.4684583614       -6.7107656141       15.5992753451  W2        2867            0.0000000000
      8463      2821  TIP3      H2             -6.3131583614       -5.2049656141       15.5811053451  W2        2867            0.0000000000
      8464      2822  TIP3      OH2           -20.0293583614       -5.8154156141       12.1127953451  W2        2870            0.0000000000
      8465      2822  TIP3      H1            -20.2968983614       -5.5291256141       12.9861053451  W2        2870            0.0000000000
      8466      2822  TIP3      H2            -19.2580983614       -6.3614956141       12.2650453451  W2        2870            0.0000000000
      8467      2823  TIP3      OH2             7.3494916386      -13.3252956141       18.3452153451  W2        2873            0.0000000000
      8468      2823  TIP3      H1              7.4386016386      -12.3814756141       18.2129253451  W2        2873            0.0000000000
      8469      2823  TIP3      H2              6.7112516386      -13.6006556141       17.6871553451  W2        2873            0.0000000000
      8470      2824  TIP3      OH2             6.2826216386      -14.0702256141       21.7640353451  W2        2874            0.0000000000
      8471      2824  TIP3      H1              6.2443716386      -14.7165956141       22.4689953451  W2        2874            0.0000000000
      8472      2824  TIP3      H2              5.9602716386      -14.5367856141       20.9929053451  W2        2874            0.0000000000
      8473      2825  TIP3      OH2            -1.3488783614      -14.4560156141       23.3570253451  W2        2875            0.0000000000
      8474      2825  TIP3      H1             -1.3076683614      -15.0816856141       24.0802653451  W2        2875            0.0000000000
      8475      2825  TIP3      H2             -0.6461083614      -13.8321556141       23.5390653451  W2        2875            0.0000000000
      8476      2826  TIP3      OH2             9.9886416386      -11.1311856141       20.0655453451  W2        2876            0.0000000000
      8477      2826  TIP3      H1              9.5479116386      -11.8515856141       20.5161053451  W2        2876            0.0000000000
      8478      2826  TIP3      H2              9.9756116386      -10.4104656141       20.6953153451  W2        2876            0.0000000000
      8479      2827  TIP3      OH2            -0.4255683614      -10.0061256141       21.8919353451  W2        2877            0.0000000000
      8480      2827  TIP3      H1             -0.7950483614      -10.8080756141       21.5223653451  W2        2877            0.0000000000
      8481      2827  TIP3      H2              0.5155416386      -10.1746356141       21.9382753451  W2        2877            0.0000000000
      8482      2828  TIP3      OH2            -3.8155183614      -16.3458656141       17.2848153451  W2        2878            0.0000000000
      8483      2828  TIP3      H1             -4.2631783614      -15.4999956141       17.2664653451  W2        2878            0.0000000000
      8484      2828  TIP3      H2             -4.3763983614      -16.9254456141       16.7693253451  W2        2878            0.0000000000
      8485      2829  TIP3      OH2            -3.1049083614      -14.1839056141       19.4106153451  W2        2879            0.0000000000
      8486      2829  TIP3      H1             -2.8915583614      -14.9537456141       19.9379153451  W2        2879            0.0000000000
      8487      2829  TIP3      H2             -2.3671483614      -14.0942356141       18.8073753451  W2        2879            0.0000000000
      8488      2830  TIP3      OH2             7.1001916386       -6.0270156141       20.2775853451  W2        2880            0.0000000000
      8489      2830  TIP3      H1              7.7198316386       -6.7035456141       20.0045053451  W2        2880            0.0000000000
      8490      2830  TIP3      H2              6.8919316386       -6.2449356141       21.1860753451  W2        2880            0.0000000000
      8491      2831  TIP3      OH2             4.6720616386      -11.6380856141       22.1701353451  W2        2881            0.0000000000
      8492      2831  TIP3      H1              4.9758516386      -12.3239456141       21.5755453451  W2        2881            0.0000000000
      8493      2831  TIP3      H2              5.3934616386      -11.5192156141       22.7879353451  W2        2881            0.0000000000
      8494      2832  TIP3      OH2            13.3350416386      -20.0365556141       23.0307553451  W2        2882            0.0000000000
      8495      2832  TIP3      H1             13.3842616386      -19.4264356141       23.7666653451  W2        2882            0.0000000000
      8496      2832  TIP3      H2             13.7605516386      -19.5754656141       22.3078653451  W2        2882            0.0000000000
      8497      2833  TIP3      OH2             7.8127616386      -17.2438456141       22.4976153451  W2        2883            0.0000000000
      8498      2833  TIP3      H1              7.9553516386      -18.1901456141       22.5177753451  W2        2883            0.0000000000
      8499      2833  TIP3      H2              7.7066616386      -17.0368656141       21.5691053451  W2        2883            0.0000000000
      8500      2834  TIP3      OH2             0.9675916386      -19.1422056141       19.7700953451  W2        2884            0.0000000000
      8501      2834  TIP3      H1              1.0107016386      -18.2823556141       19.3517253451  W2        2884            0.0000000000
      8502      2834  TIP3      H2              0.5100016386      -19.6947356141       19.1364153451  W2        2884            0.0000000000
      8503      2835  TIP3      OH2             8.6898616386      -19.0116456141       18.1709253451  W2        2885            0.0000000000
      8504      2835  TIP3      H1              9.3362916386      -19.3403256141       18.7956853451  W2        2885            0.0000000000
      8505      2835  TIP3      H2              9.1998016386      -18.4937456141       17.5480653451  W2        2885            0.0000000000
      8506      2836  TIP3      OH2            -2.4122583614      -16.7456256141       20.5322353451  W2        2886            0.0000000000
      8507      2836  TIP3      H1             -1.7585983614      -17.2954556141       20.9642453451  W2        2886            0.0000000000
      8508      2836  TIP3      H2             -2.3883283614      -17.0197256141       19.6154353451  W2        2886            0.0000000000
      8509      2837  TIP3      OH2             2.7441916386      -15.1954956141       19.7473853451  W2        2887            0.0000000000
      8510      2837  TIP3      H1              3.3602916386      -15.7219556141       20.2567853451  W2        2887            0.0000000000
      8511      2837  TIP3      H2              2.1580716386      -15.8356256141       19.3437453451  W2        2887            0.0000000000
      8512      2838  TIP3      OH2            13.7265016386      -18.5586356141       25.2667353451  W2        2888            0.0000000000
      8513      2838  TIP3      H1             13.0379616386      -17.9005656141       25.1713953451  W2        2888            0.0000000000
      8514      2838  TIP3      H2             13.7419616386      -18.7558456141       26.2032753451  W2        2888            0.0000000000
      8515      2839  TIP3      OH2            -0.2222183614      -20.2243656141       23.8441753451  W2        2889            0.0000000000
      8516      2839  TIP3      H1             -0.4410483614      -19.6943056141       23.0777753451  W2        2889            0.0000000000
      8517      2839  TIP3      H2             -0.8901283614      -19.9978156141       24.4913153451  W2        2889            0.0000000000
      8518      2840  TIP3      OH2             7.1467616386      -10.7242556141       17.3880853451  W2        2890            0.0000000000
      8519      2840  TIP3      H1              6.8512716386      -11.0470256141       16.5367753451  W2        2890            0.0000000000
      8520      2840  TIP3      H2              6.8225416386       -9.8245856141       17.4293453451  W2        2890            0.0000000000
      8521      2841  TIP3      OH2             2.3469216386      -12.5487956141       24.1315453451  W2        2891            0.0000000000
      8522      2841  TIP3      H1              1.6068316386      -11.9506456141       24.2350653451  W2        2891            0.0000000000
      8523      2841  TIP3      H2              3.0608716386      -11.9948356141       23.8159053451  W2        2891            0.0000000000
      8524      2842  TIP3      OH2            10.4537016386      -19.7207156141       20.1515153451  W2        2892            0.0000000000
      8525      2842  TIP3      H1             10.2385016386      -20.4863756141       20.6841153451  W2        2892            0.0000000000
      8526      2842  TIP3      H2             11.1094416386      -19.2482556141       20.6643653451  W2        2892            0.0000000000
      8527      2843  TIP3      OH2            -0.6284883614      -18.3321856141       21.7963953451  W2        2893            0.0000000000
      8528      2843  TIP3      H1             -0.0148583614      -17.6994256141       22.1696353451  W2        2893            0.0000000000
      8529      2843  TIP3      H2             -0.1164183614      -18.8046856141       21.1400853451  W2        2893            0.0000000000
      8530      2844  TIP3      OH2             0.7543516386      -10.5844956141       24.9186953451  W2        2894            0.0000000000
      8531      2844  TIP3      H1              0.7491116386       -9.7051456141       24.5406253451  W2        2894            0.0000000000
      8532      2844  TIP3      H2             -0.0992383614      -10.6680856141       25.3436853451  W2        2894            0.0000000000
      8533      2845  TIP3      OH2            -3.1245583614      -10.9137056141       15.7006253451  W2        2895            0.0000000000
      8534      2845  TIP3      H1             -3.3964683614      -10.6846056141       14.8119153451  W2        2895            0.0000000000
      8535      2845  TIP3      H2             -3.0789883614      -10.0758256141       16.1611553451  W2        2895            0.0000000000
      8536      2846  TIP3      OH2            10.5004116386       -9.2921156141       22.4134753451  W2        2896            0.0000000000
      8537      2846  TIP3      H1              9.5587816386       -9.2337256141       22.5751653451  W2        2896            0.0000000000
      8538      2846  TIP3      H2             10.7770216386       -8.3860656141       22.2764453451  W2        2896            0.0000000000
      8539      2847  TIP3      OH2            10.8011116386      -21.0055856141       23.8308653451  W2        2897            0.0000000000
      8540      2847  TIP3      H1             10.0650316386      -20.3948756141       23.7929953451  W2        2897            0.0000000000
      8541      2847  TIP3      H2             11.4845116386      -20.5906856141       23.3045053451  W2        2897            0.0000000000
      8542      2848  TIP3      OH2             3.8042516386      -22.9188556141       21.2966653451  W2        2898            0.0000000000
      8543      2848  TIP3      H1              3.6866716386      -23.8672556141       21.2424953451  W2        2898            0.0000000000
      8544      2848  TIP3      H2              2.9492616386      -22.5862456141       21.5697753451  W2        2898            0.0000000000
      8545      2849  TIP3      OH2             8.7525316386       -7.5107656141       19.0386353451  W2        2899            0.0000000000
      8546      2849  TIP3      H1              9.1777616386       -8.2179756141       18.5535953451  W2        2899            0.0000000000
      8547      2849  TIP3      H2              9.0695316386       -6.7094956141       18.6218553451  W2        2899            0.0000000000
      8548      2850  TIP3      OH2             9.9121816386       -9.6099156141       17.5472953451  W2        2900            0.0000000000
      8549      2850  TIP3      H1              9.6546616386      -10.2999056141       16.9358853451  W2        2900            0.0000000000
      8550      2850  TIP3      H2              9.9832616386      -10.0527956141       18.3928853451  W2        2900            0.0000000000
      8551      2851  TIP3      OH2            11.5982016386      -11.0432456141       26.0246453451  W2        2901            0.0000000000
      8552      2851  TIP3      H1             11.7378316386      -11.6349956141       25.2853453451  W2        2901            0.0000000000
      8553      2851  TIP3      H2             11.7654816386      -10.1706556141       25.6685253451  W2        2901            0.0000000000
      8554      2852  TIP3      OH2             6.0707416386      -14.0812956141       15.7972453451  W2        2902            0.0000000000
      8555      2852  TIP3      H1              5.3592916386      -13.5463256141       15.4452953451  W2        2902            0.0000000000
      8556      2852  TIP3      H2              6.7617016386      -14.0260856141       15.1371353451  W2        2902            0.0000000000
      8557      2853  TIP3      OH2             6.1246616386      -15.6238656141       12.8357453451  W2        2903            0.0000000000
      8558      2853  TIP3      H1              6.8256516386      -15.6011756141       13.4871453451  W2        2903            0.0000000000
      8559      2853  TIP3      H2              6.4269516386      -16.2518956141       12.1796753451  W2        2903            0.0000000000
      8560      2854  TIP3      OH2            13.4401316386      -14.7034456141       24.0906853451  W2        2904            0.0000000000
      8561      2854  TIP3      H1             12.7875416386      -14.0088856141       24.1797753451  W2        2904            0.0000000000
      8562      2854  TIP3      H2             13.9051616386      -14.4933556141       23.2808453451  W2        2904            0.0000000000
      8563      2855  TIP3      OH2             9.4765116386      -13.8719656141       16.7488353451  W2        2905            0.0000000000
      8564      2855  TIP3      H1              8.7446116386      -13.6435956141       17.3218953451  W2        2905            0.0000000000
      8565      2855  TIP3      H2              9.9237316386      -14.5856956141       17.2035853451  W2        2905            0.0000000000
      8566      2856  TIP3      OH2             9.3738616386      -15.6977056141       25.8165353451  W2        2906            0.0000000000
      8567      2856  TIP3      H1              9.4537716386      -14.9342656141       26.3883853451  W2        2906            0.0000000000
      8568      2856  TIP3      H2              8.7726316386      -15.4184656141       25.1260453451  W2        2906            0.0000000000
      8569      2857  TIP3      OH2             1.1218816386      -13.2413456141       18.6313353451  W2        2907            0.0000000000
      8570      2857  TIP3      H1              0.7914016386      -13.6120056141       17.8130353451  W2        2907            0.0000000000
      8571      2857  TIP3      H2              1.7102916386      -13.9119456141       18.9781653451  W2        2907            0.0000000000
      8572      2858  TIP3      OH2             2.4886316386       -9.8132856141       21.3125553451  W2        2908            0.0000000000
      8573      2858  TIP3      H1              2.3937616386      -10.3919756141       20.5560153451  W2        2908            0.0000000000
      8574      2858  TIP3      H2              3.2179916386      -10.1847156141       21.8088353451  W2        2908            0.0000000000
      8575      2859  TIP3      OH2             1.4884316386      -14.4727856141       22.2648353451  W2        2909            0.0000000000
      8576      2859  TIP3      H1              2.0536816386      -14.3513656141       21.5019553451  W2        2909            0.0000000000
      8577      2859  TIP3      H2              1.8073216386      -13.8352856141       22.9036853451  W2        2909            0.0000000000
      8578      2860  TIP3      OH2             7.7976516386       -8.9695956141       22.9988853451  W2        2910            0.0000000000
      8579      2860  TIP3      H1              7.5573116386       -8.3072856141       23.6468053451  W2        2910            0.0000000000
      8580      2860  TIP3      H2              7.5994716386       -9.8040756141       23.4238453451  W2        2910            0.0000000000
      8581      2861  TIP3      OH2             8.3474616386      -14.7096756141       14.4339553451  W2        2912            0.0000000000
      8582      2861  TIP3      H1              8.9270116386      -14.5596456141       15.1808453451  W2        2912            0.0000000000
      8583      2861  TIP3      H2              8.7614616386      -14.2389356141       13.7105953451  W2        2912            0.0000000000
      8584      2862  TIP3      OH2             6.0739516386       -7.9728256141       17.8692653451  W2        2914            0.0000000000
      8585      2862  TIP3      H1              6.5477116386       -7.6771956141       18.6466853451  W2        2914            0.0000000000
      8586      2862  TIP3      H2              5.5108816386       -7.2346656141       17.6362253451  W2        2914            0.0000000000
      8587      2863  TIP3      OH2            12.0463016386      -22.9596356141       14.2469253451  W2        2916            0.0000000000
      8588      2863  TIP3      H1             11.1463716386      -22.8207356141       14.5419853451  W2        2916            0.0000000000
      8589      2863  TIP3      H2             12.2981416386      -22.1281756141       13.8450953451  W2        2916            0.0000000000
      8590      2864  TIP3      OH2             0.1121516386      -14.1719156141       16.2206153451  W2        2917            0.0000000000
      8591      2864  TIP3      H1             -0.1797183614      -13.4037456141       15.7297453451  W2        2917            0.0000000000
      8592      2864  TIP3      H2             -0.5623283614      -14.8312956141       16.0577553451  W2        2917            0.0000000000
      8593      2865  TIP3      OH2            13.2354416386       -8.5933956141       12.6233153451  W2        2918            0.0000000000
      8594      2865  TIP3      H1             13.3087916386       -7.6543756141       12.7938453451  W2        2918            0.0000000000
      8595      2865  TIP3      H2             14.1409516386       -8.8985356141       12.5670453451  W2        2918            0.0000000000
      8596      2866  TIP3      OH2            -3.7948383614      -11.8089956141       25.0355953451  W2        2919            0.0000000000
      8597      2866  TIP3      H1             -4.2959983614      -11.8370556141       24.2205653451  W2        2919            0.0000000000
      8598      2866  TIP3      H2             -3.7894683614      -12.7146756141       25.3453253451  W2        2919            0.0000000000
      8599      2867  TIP3      OH2            -4.0445683614       -9.0286156141       21.9196153451  W2        2920            0.0000000000
      8600      2867  TIP3      H1             -3.0985083614       -9.1729156141       21.9005653451  W2        2920            0.0000000000
      8601      2867  TIP3      H2             -4.1569383614       -8.2443356141       22.4567353451  W2        2920            0.0000000000
      8602      2868  TIP3      OH2             5.5462616386       -5.0163556141       16.2841853451  W2        2923            0.0000000000
      8603      2868  TIP3      H1              5.4708616386       -5.1376356141       15.3377053451  W2        2923            0.0000000000
      8604      2868  TIP3      H2              5.5791316386       -4.0670856141       16.4026453451  W2        2923            0.0000000000
      8605      2869  TIP3      OH2            -0.8003583614       -6.2276556141       18.0650853451  W2        2924            0.0000000000
      8606      2869  TIP3      H1             -0.6483183614       -6.5756156141       18.9437353451  W2        2924            0.0000000000
      8607      2869  TIP3      H2             -1.6513183614       -6.5839256141       17.8098053451  W2        2924            0.0000000000
      8608      2870  TIP3      OH2             8.6478616386       -5.8623356141       13.2864253451  W2        2925            0.0000000000
      8609      2870  TIP3      H1              9.0227016386       -6.6067256141       12.8156853451  W2        2925            0.0000000000
      8610      2870  TIP3      H2              8.6522316386       -6.1322756141       14.2047553451  W2        2925            0.0000000000
      8611      2871  TIP3      OH2             8.3166716386       -5.9366256141       16.0356453451  W2        2926            0.0000000000
      8612      2871  TIP3      H1              7.3816516386       -5.8364356141       16.2143453451  W2        2926            0.0000000000
      8613      2871  TIP3      H2              8.5968616386       -6.6460256141       16.6139653451  W2        2926            0.0000000000
      8614      2872  TIP3      OH2            -1.5457883614      -10.4854556141       26.0788753451  W2        2928            0.0000000000
      8615      2872  TIP3      H1             -1.3296583614      -10.8468956141       26.9384553451  W2        2928            0.0000000000
      8616      2872  TIP3      H2             -2.4013183614      -10.8600756141       25.8692253451  W2        2928            0.0000000000
      8617      2873  TIP3      OH2             1.0730116386      -22.0154056141       22.0742953451  W2        2929            0.0000000000
      8618      2873  TIP3      H1              0.2113816386      -22.1025856141       21.6665853451  W2        2929            0.0000000000
      8619      2873  TIP3      H2              1.0505816386      -21.1593956141       22.5020553451  W2        2929            0.0000000000
      8620      2874  TIP3      OH2             5.7357916386      -22.2933656141       25.4489953451  W2        2930            0.0000000000
      8621      2874  TIP3      H1              6.1561016386      -22.7086556141       26.2020553451  W2        2930            0.0000000000
      8622      2874  TIP3      H2              4.8027516386      -22.4720356141       25.5661953451  W2        2930            0.0000000000
      8623      2875  TIP3      OH2             9.8247716386      -13.6768456141       12.0637453451  W2        2932            0.0000000000
      8624      2875  TIP3      H1              9.8668516386      -13.8994556141       11.1337453451  W2        2932            0.0000000000
      8625      2875  TIP3      H2             10.6739816386      -13.2781356141       12.2537353451  W2        2932            0.0000000000
      8626      2876  TIP3      OH2             5.3975216386      -19.8010256141       12.7340753451  W2        2933            0.0000000000
      8627      2876  TIP3      H1              5.1440016386      -19.7818656141       13.6568853451  W2        2933            0.0000000000
      8628      2876  TIP3      H2              5.1407316386      -20.6724856141       12.4326953451  W2        2933            0.0000000000
      8629      2877  TIP3      OH2             1.1640216386      -17.0499556141       23.1693153451  W2        2934            0.0000000000
      8630      2877  TIP3      H1              0.5222316386      -17.0902256141       23.8783253451  W2        2934            0.0000000000
      8631      2877  TIP3      H2              1.2012216386      -16.1234856141       22.9316153451  W2        2934            0.0000000000
      8632      2878  TIP3      OH2             1.1609316386      -16.8289456141       18.0813153451  W2        2935            0.0000000000
      8633      2878  TIP3      H1              0.2682216386      -17.1693356141       18.0226953451  W2        2935            0.0000000000
      8634      2878  TIP3      H2              1.6115916386      -17.2058556141       17.3256353451  W2        2935            0.0000000000
      8635      2879  TIP3      OH2             6.6964816386      -16.4129156141       16.8983953451  W2        2936            0.0000000000
      8636      2879  TIP3      H1              6.2875116386      -15.5980556141       16.6068753451  W2        2936            0.0000000000
      8637      2879  TIP3      H2              7.4171016386      -16.5529056141       16.2841053451  W2        2936            0.0000000000
      8638      2880  TIP3      OH2             7.7012516386      -16.9668756141       19.7123653451  W2        2938            0.0000000000
      8639      2880  TIP3      H1              7.5057016386      -16.3611956141       18.9974253451  W2        2938            0.0000000000
      8640      2880  TIP3      H2              7.8825116386      -17.8003556141       19.2779953451  W2        2938            0.0000000000
      8641      2881  TIP3      OH2            -1.0859283614      -16.7296056141       25.0365153451  W2        2939            0.0000000000
      8642      2881  TIP3      H1             -1.1239883614      -16.3294456141       25.9052253451  W2        2939            0.0000000000
      8643      2881  TIP3      H2             -1.5768183614      -17.5463656141       25.1268053451  W2        2939            0.0000000000
      8644      2882  TIP3      OH2             2.2798116386      -19.3553756141       11.8351153451  W2        2940            0.0000000000
      8645      2882  TIP3      H1              1.8488816386      -19.8003656141       12.5648553451  W2        2940            0.0000000000
      8646      2882  TIP3      H2              1.5616816386      -18.9837456141       11.3228653451  W2        2940            0.0000000000
      8647      2883  TIP3      OH2            -4.4778483614      -19.6134256141       18.8869853451  W2        2941            0.0000000000
      8648      2883  TIP3      H1             -3.8470783614      -19.6422156141       19.6063753451  W2        2941            0.0000000000
      8649      2883  TIP3      H2             -4.0284183614      -20.0385556141       18.1565753451  W2        2941            0.0000000000
      8650      2884  TIP3      OH2            -3.2036383614      -18.8672256141       14.3110253451  W2        2942            0.0000000000
      8651      2884  TIP3      H1             -2.7294683614      -18.2762356141       13.7261153451  W2        2942            0.0000000000
      8652      2884  TIP3      H2             -3.9209983614      -18.3369356141       14.6580353451  W2        2942            0.0000000000
      8653      2885  TIP3      OH2             6.9651716386      -15.3287456141       24.3836053451  W2        2943            0.0000000000
      8654      2885  TIP3      H1              7.2886516386      -15.9597756141       23.7406553451  W2        2943            0.0000000000
      8655      2885  TIP3      H2              6.5251016386      -15.8635256141       25.0443453451  W2        2943            0.0000000000
      8656      2886  TIP3      OH2             3.7424616386      -19.4011956141       19.1677253451  W2        2944            0.0000000000
      8657      2886  TIP3      H1              2.8315716386      -19.3445156141       19.4563253451  W2        2944            0.0000000000
      8658      2886  TIP3      H2              4.2477516386      -19.4616456141       19.9784453451  W2        2944            0.0000000000
      8659      2887  TIP3      OH2            -1.4291983614      -17.7725656141       17.9944853451  W2        2945            0.0000000000
      8660      2887  TIP3      H1             -2.3183983614      -17.6730156141       17.6544453451  W2        2945            0.0000000000
      8661      2887  TIP3      H2             -1.1327083614      -18.6142656141       17.6482753451  W2        2945            0.0000000000
      8662      2888  TIP3      OH2             2.2239816386      -17.7723056141       15.6509453451  W2        2946            0.0000000000
      8663      2888  TIP3      H1              3.1555316386      -17.6433056141       15.8292553451  W2        2946            0.0000000000
      8664      2888  TIP3      H2              2.0090116386      -17.1028756141       15.0014153451  W2        2946            0.0000000000
      8665      2889  TIP3      OH2             8.1476516386      -20.1665656141       22.4319053451  W2        2947            0.0000000000
      8666      2889  TIP3      H1              7.4708116386      -20.0352556141       23.0958753451  W2        2947            0.0000000000
      8667      2889  TIP3      H2              7.6621416386      -20.3216156141       21.6216753451  W2        2947            0.0000000000
      8668      2890  TIP3      OH2             0.8980016386      -16.5780856141       13.2175553451  W2        2948            0.0000000000
      8669      2890  TIP3      H1              0.3555116386      -16.9577056141       12.5263153451  W2        2948            0.0000000000
      8670      2890  TIP3      H2              1.7314916386      -16.3836156141       12.7889653451  W2        2948            0.0000000000
      8671      2891  TIP3      OH2             5.0624316386      -16.6138956141       21.0546853451  W2        2951            0.0000000000
      8672      2891  TIP3      H1              5.6267716386      -17.1602356141       20.5076453451  W2        2951            0.0000000000
      8673      2891  TIP3      H2              4.9147716386      -17.1357056141       21.8434453451  W2        2951            0.0000000000
      8674      2892  TIP3      OH2             0.0644016386      -20.4772856141       17.4731653451  W2        2952            0.0000000000
      8675      2892  TIP3      H1             -0.2526483614      -21.3797556141       17.4377053451  W2        2952            0.0000000000
      8676      2892  TIP3      H2              0.8458116386      -20.4755456141       16.9203253451  W2        2952            0.0000000000
      8677      2893  TIP3      OH2             3.6890216386      -18.2252856141       23.4687253451  W2        2953            0.0000000000
      8678      2893  TIP3      H1              2.8535516386      -17.7713356141       23.5789653451  W2        2953            0.0000000000
      8679      2893  TIP3      H2              4.2130816386      -17.9494356141       24.2207153451  W2        2953            0.0000000000
      8680      2894  TIP3      OH2             4.2332816386      -12.0125156141       15.1533653451  W2        2954            0.0000000000
      8681      2894  TIP3      H1              3.4883816386      -12.5199856141       14.8311553451  W2        2954            0.0000000000
      8682      2894  TIP3      H2              4.0990016386      -11.9637156141       16.0998453451  W2        2954            0.0000000000
      8683      2895  TIP3      OH2            11.3831716386      -12.8796956141       23.9401253451  W2        2955            0.0000000000
      8684      2895  TIP3      H1             12.0250516386      -12.4230656141       23.3963453451  W2        2955            0.0000000000
      8685      2895  TIP3      H2             10.5528616386      -12.7664556141       23.4775353451  W2        2955            0.0000000000
      8686      2896  TIP3      OH2             8.1309616386      -19.1985256141       13.3526253451  W2        2956            0.0000000000
      8687      2896  TIP3      H1              7.1923816386      -19.0869656141       13.2015053451  W2        2956            0.0000000000
      8688      2896  TIP3      H2              8.4281716386      -18.3418356141       13.6591953451  W2        2956            0.0000000000
      8689      2897  TIP3      OH2             8.8493116386      -17.3312556141       15.0133653451  W2        2958            0.0000000000
      8690      2897  TIP3      H1              9.7412116386      -17.4687556141       15.3324853451  W2        2958            0.0000000000
      8691      2897  TIP3      H2              8.9056716386      -16.5406456141       14.4767153451  W2        2958            0.0000000000
      8692      2898  TIP3      OH2            -0.6418883614      -12.7175156141       20.9231553451  W2        2959            0.0000000000
      8693      2898  TIP3      H1              0.1028316386      -12.7199456141       20.3218053451  W2        2959            0.0000000000
      8694      2898  TIP3      H2             -0.5642283614      -13.5411356141       21.4046653451  W2        2959            0.0000000000
      8695      2899  TIP3      OH2             6.3586916386      -10.5540856141       14.1788253451  W2        2960            0.0000000000
      8696      2899  TIP3      H1              6.0635316386       -9.7272956141       14.5603053451  W2        2960            0.0000000000
      8697      2899  TIP3      H2              5.6556916386      -11.1733956141       14.3749653451  W2        2960            0.0000000000
      8698      2900  TIP3      OH2            13.7341816386      -17.1218456141       14.7080353451  W2        2964            0.0000000000
      8699      2900  TIP3      H1             13.1798116386      -17.5180456141       14.0357853451  W2        2964            0.0000000000
      8700      2900  TIP3      H2             13.8345416386      -16.2113256141       14.4303653451  W2        2964            0.0000000000
      8701      2901  TIP3      OH2            12.0293516386       -8.3358056141       15.1732453451  W2        2966            0.0000000000
      8702      2901  TIP3      H1             11.6564616386       -9.1614256141       15.4823053451  W2        2966            0.0000000000
      8703      2901  TIP3      H2             12.3067016386       -8.5188656141       14.2755853451  W2        2966            0.0000000000
      8704      2902  TIP3      OH2             9.1897416386      -13.5278556141       22.1944353451  W2        2967            0.0000000000
      8705      2902  TIP3      H1              8.2614316386      -13.7596656141       22.1673653451  W2        2967            0.0000000000
      8706      2902  TIP3      H2              9.6408516386      -14.3048756141       21.8643153451  W2        2967            0.0000000000
      8707      2903  TIP3      OH2             1.7330516386       -9.1996956141       18.3273053451  W2        2968            0.0000000000
      8708      2903  TIP3      H1              2.2602716386       -8.4262556141       18.1271853451  W2        2968            0.0000000000
      8709      2903  TIP3      H2              0.8529016386       -8.9747756141       18.0257053451  W2        2968            0.0000000000
      8710      2904  TIP3      OH2            -2.5121783614      -14.3372856141       12.9145453451  W2        2969            0.0000000000
      8711      2904  TIP3      H1             -1.8961883614      -13.7105656141       13.2940253451  W2        2969            0.0000000000
      8712      2904  TIP3      H2             -3.3739183614      -14.0213056141       13.1861953451  W2        2969            0.0000000000
      8713      2905  TIP3      OH2             3.1602816386      -11.5367056141       17.9037353451  W2        2970            0.0000000000
      8714      2905  TIP3      H1              2.9192816386      -10.6112656141       17.9452653451  W2        2970            0.0000000000
      8715      2905  TIP3      H2              2.4196416386      -11.9955756141       18.3001253451  W2        2970            0.0000000000
      8716      2906  TIP3      OH2             3.6749416386       -7.3873456141       24.2188453451  W2        2971            0.0000000000
      8717      2906  TIP3      H1              4.0374116386       -6.5327856141       23.9852853451  W2        2971            0.0000000000
      8718      2906  TIP3      H2              4.2064616386       -7.6791856141       24.9594753451  W2        2971            0.0000000000
      8719      2907  TIP3      OH2             1.8433616386       -6.5149456141       17.4489553451  W2        2972            0.0000000000
      8720      2907  TIP3      H1              0.8934116386       -6.4092056141       17.5002853451  W2        2972            0.0000000000
      8721      2907  TIP3      H2              2.1951716386       -5.6942056141       17.7937053451  W2        2972            0.0000000000
      8722      2908  TIP3      OH2             7.2190216386      -11.2882756141       23.9194053451  W2        2973            0.0000000000
      8723      2908  TIP3      H1              6.7931516386      -11.5161056141       24.7458053451  W2        2973            0.0000000000
      8724      2908  TIP3      H2              7.7996016386      -12.0270956141       23.7369353451  W2        2973            0.0000000000
      8725      2909  TIP3      OH2             9.4219116386      -10.3592256141       12.9933053451  W2        2974            0.0000000000
      8726      2909  TIP3      H1              9.7752216386      -10.7392456141       13.7976553451  W2        2974            0.0000000000
      8727      2909  TIP3      H2              8.4732616386      -10.4527456141       13.0802353451  W2        2974            0.0000000000
      8728      2910  TIP3      OH2            13.9253516386       -5.8799756141       13.1943253451  W2        2976            0.0000000000
      8729      2910  TIP3      H1             14.6691416386       -5.2939256141       13.0544853451  W2        2976            0.0000000000
      8730      2910  TIP3      H2             13.2311616386       -5.3113956141       13.5275653451  W2        2976            0.0000000000
      8731      2911  TIP3      OH2            -1.9999683614      -19.5035556141       25.7961453451  W2        2977            0.0000000000
      8732      2911  TIP3      H1             -2.8927383614      -19.1650156141       25.7285453451  W2        2977            0.0000000000
      8733      2911  TIP3      H2             -2.0986883614      -20.3589456141       26.2142253451  W2        2977            0.0000000000
      8734      2912  TIP3      OH2            10.2878416386      -11.6870256141       15.2200953451  W2        2978            0.0000000000
      8735      2912  TIP3      H1             10.0106016386      -12.4150956141       15.7762053451  W2        2978            0.0000000000
      8736      2912  TIP3      H2             11.2151416386      -11.5678256141       15.4253553451  W2        2978            0.0000000000
      8737      2913  TIP3      OH2            -2.3487683614       -7.6991156141       24.2310853451  W2        2979            0.0000000000
      8738      2913  TIP3      H1             -2.1317383614       -8.6308756141       24.2000553451  W2        2979            0.0000000000
      8739      2913  TIP3      H2             -2.1024183614       -7.4246156141       25.1143653451  W2        2979            0.0000000000
      8740      2914  TIP3      OH2             3.5126916386       -9.2476156141       11.4403053451  W2        2980            0.0000000000
      8741      2914  TIP3      H1              3.7516716386       -9.9958056141       10.8931953451  W2        2980            0.0000000000
      8742      2914  TIP3      H2              3.2438216386       -9.6354456141       12.2730853451  W2        2980            0.0000000000
      8743      2915  TIP3      OH2             2.4497516386       -9.6772356141       13.8965653451  W2        2981            0.0000000000
      8744      2915  TIP3      H1              2.5965516386      -10.1972556141       14.6866553451  W2        2981            0.0000000000
      8745      2915  TIP3      H2              2.4469216386       -8.7704756141       14.2031553451  W2        2981            0.0000000000
      8746      2916  TIP3      OH2            -1.0971383614      -12.4249056141       14.4071053451  W2        2982            0.0000000000
      8747      2916  TIP3      H1             -1.7832083614      -12.0726556141       14.9740753451  W2        2982            0.0000000000
      8748      2916  TIP3      H2             -0.5743483614      -11.6619456141       14.1605353451  W2        2982            0.0000000000
      8749      2917  TIP3      OH2             6.7343716386      -19.7625256141       24.6860053451  W2        2983            0.0000000000
      8750      2917  TIP3      H1              7.4331616386      -19.6886556141       25.3359753451  W2        2983            0.0000000000
      8751      2917  TIP3      H2              6.3535116386      -20.6270256141       24.8402953451  W2        2983            0.0000000000
      8752      2918  TIP3      OH2             7.5188616386      -20.1103556141       15.7832353451  W2        2984            0.0000000000
      8753      2918  TIP3      H1              7.7386916386      -19.6388156141       14.9797753451  W2        2984            0.0000000000
      8754      2918  TIP3      H2              8.0772616386      -19.7160956141       16.4532953451  W2        2984            0.0000000000
      8755      2919  TIP3      OH2             5.1874716386       -7.9798756141       14.6459853451  W2        2985            0.0000000000
      8756      2919  TIP3      H1              4.3710816386       -7.4829056141       14.6984153451  W2        2985            0.0000000000
      8757      2919  TIP3      H2              5.7171016386       -7.5045256141       14.0058653451  W2        2985            0.0000000000
      8758      2920  TIP3      OH2             4.7188516386      -18.3824756141       16.6180753451  W2        2986            0.0000000000
      8759      2920  TIP3      H1              5.5311116386      -17.8781556141       16.6642453451  W2        2986            0.0000000000
      8760      2920  TIP3      H2              4.4741516386      -18.5275056141       17.5320353451  W2        2986            0.0000000000
      8761      2921  TIP3      OH2             5.2544916386      -17.3962056141       25.8027353451  W2        2987            0.0000000000
      8762      2921  TIP3      H1              5.3735216386      -16.8226656141       26.5597753451  W2        2987            0.0000000000
      8763      2921  TIP3      H2              5.9099516386      -18.0842656141       25.9175153451  W2        2987            0.0000000000
      8764      2922  TIP3      OH2             5.6025216386      -21.3011756141       17.5561853451  W2        2988            0.0000000000
      8765      2922  TIP3      H1              5.2558716386      -20.6841156141       18.2006153451  W2        2988            0.0000000000
      8766      2922  TIP3      H2              6.2612116386      -20.8006056141       17.0747353451  W2        2988            0.0000000000
      8767      2923  TIP3      OH2             2.5257816386       -6.9361556141       14.6276753451  W2        2989            0.0000000000
      8768      2923  TIP3      H1              2.6866516386       -6.1364056141       14.1269353451  W2        2989            0.0000000000
      8769      2923  TIP3      H2              2.3285616386       -6.6295556141       15.5127353451  W2        2989            0.0000000000
      8770      2924  TIP3      OH2             1.2602216386      -20.2382356141       14.2434353451  W2        2990            0.0000000000
      8771      2924  TIP3      H1              1.1767016386      -19.3499256141       14.5900753451  W2        2990            0.0000000000
      8772      2924  TIP3      H2              2.1502516386      -20.5035656141       14.4751153451  W2        2990            0.0000000000
      8773      2925  TIP3      OH2            10.0611716386      -15.7390756141       20.7334353451  W2        2992            0.0000000000
      8774      2925  TIP3      H1              9.2636116386      -16.1540556141       20.4049353451  W2        2992            0.0000000000
      8775      2925  TIP3      H2             10.5062816386      -16.4297056141       21.2244853451  W2        2992            0.0000000000
      8776      2926  TIP3      OH2            -0.4812483614       -9.8110156141       13.3038853451  W2        2993            0.0000000000
      8777      2926  TIP3      H1              0.1109016386       -9.1115356141       13.5801253451  W2        2993            0.0000000000
      8778      2926  TIP3      H2             -0.0219483614      -10.2440656141       12.5843453451  W2        2993            0.0000000000
      8779      2927  TIP3      OH2            -2.1653283614      -17.1467156141       12.4198253451  W2        2994            0.0000000000
      8780      2927  TIP3      H1             -2.2100683614      -16.2074056141       12.5985253451  W2        2994            0.0000000000
      8781      2927  TIP3      H2             -3.0530083614      -17.3822256141       12.1500353451  W2        2994            0.0000000000
      8782      2928  TIP3      OH2            11.1476316386       -6.4828256141       22.3557853451  W2        2995            0.0000000000
      8783      2928  TIP3      H1             10.9920616386       -5.8043856141       21.6987153451  W2        2995            0.0000000000
      8784      2928  TIP3      H2             12.0802716386       -6.4108956141       22.5588453451  W2        2995            0.0000000000
      8785      2929  TIP3      OH2            -1.3571283614      -22.3650556141       21.0929253451  W2        2996            0.0000000000
      8786      2929  TIP3      H1             -1.5861483614      -22.3058056141       20.1654253451  W2        2996            0.0000000000
      8787      2929  TIP3      H2             -1.7997883614      -23.1565056141       21.3993353451  W2        2996            0.0000000000
      8788      2930  TIP3      OH2            -2.4267983614       -8.4243456141       17.2535053451  W2        2997            0.0000000000
      8789      2930  TIP3      H1             -3.2589383614       -7.9520756141       17.2806453451  W2        2997            0.0000000000
      8790      2930  TIP3      H2             -1.8809683614       -7.9145856141       16.6548153451  W2        2997            0.0000000000
      8791      2931  TIP3      OH2             5.5508716386       -7.3844756141       11.5789053451  W2        3000            0.0000000000
      8792      2931  TIP3      H1              4.9069716386       -8.0156156141       11.9002753451  W2        3000            0.0000000000
      8793      2931  TIP3      H2              6.3127016386       -7.9156756141       11.3472553451  W2        3000            0.0000000000
      8794      2932  TIP3      OH2            10.1551616386       -7.5674856141       11.8127053451  W2        3002            0.0000000000
      8795      2932  TIP3      H1             10.4382016386       -8.3619656141       12.2653953451  W2        3002            0.0000000000
      8796      2932  TIP3      H2             10.8949516386       -7.3343856141       11.2518153451  W2        3002            0.0000000000
      8797      2933  TIP3      OH2             1.1098916386      -11.6579956141       11.6701953451  W2        3004            0.0000000000
      8798      2933  TIP3      H1              1.1743016386      -12.4520356141       12.2008353451  W2        3004            0.0000000000
      8799      2933  TIP3      H2              1.7628116386      -11.7767156141       10.9803953451  W2        3004            0.0000000000
      8800      2934  TIP3      OH2             6.4622316386      -10.6108256141       11.4059953451  W2        3006            0.0000000000
      8801      2934  TIP3      H1              6.1936416386      -10.4306156141       12.3068853451  W2        3006            0.0000000000
      8802      2934  TIP3      H2              6.2557916386      -11.5362056141       11.2745753451  W2        3006            0.0000000000
      8803      2935  TIP3      OH2             2.2592716386      -13.6853756141       13.9759953451  W2        3009            0.0000000000
      8804      2935  TIP3      H1              1.7994716386      -14.1695456141       14.6618453451  W2        3009            0.0000000000
      8805      2935  TIP3      H2              2.5141416386      -14.3538356141       13.3400453451  W2        3009            0.0000000000
      8806      2936  TIP3      OH2             3.3303116386      -15.4421956141       12.2383153451  W2        3011            0.0000000000
      8807      2936  TIP3      H1              3.1498116386      -15.5970756141       11.3111453451  W2        3011            0.0000000000
      8808      2936  TIP3      H2              4.2803616386      -15.3343256141       12.2831053451  W2        3011            0.0000000000
      8809      2937  TIP3      OH2            12.7201416386      -13.0877756141       11.6841253451  W2        3013            0.0000000000
      8810      2937  TIP3      H1             12.4466216386      -13.5122256141       10.8709553451  W2        3013            0.0000000000
      8811      2937  TIP3      H2             12.7595516386      -12.1563256141       11.4671653451  W2        3013            0.0000000000
      8812      2938  TIP3      OH2             2.3001416386      -20.0680056141       24.9070053451  W2        3015            0.0000000000
      8813      2938  TIP3      H1              2.8358916386      -19.6163356141       24.2549353451  W2        3015            0.0000000000
      8814      2938  TIP3      H2              1.4481016386      -20.1760256141       24.4844153451  W2        3015            0.0000000000
      8815      2939  TIP3      OH2             3.8819816386      -14.6283856141       25.1465253451  W2        3016            0.0000000000
      8816      2939  TIP3      H1              4.6324616386      -14.7846356141       24.5733053451  W2        3016            0.0000000000
      8817      2939  TIP3      H2              3.5428116386      -13.7767256141       24.8710753451  W2        3016            0.0000000000
      8818      2940  TIP3      OH2             3.1056916386      -22.6114356141       25.3383653451  W2        3020            0.0000000000
      8819      2940  TIP3      H1              3.0076516386      -21.6651156141       25.2329853451  W2        3020            0.0000000000
      8820      2940  TIP3      H2              2.3633116386      -22.9840556141       24.8627153451  W2        3020            0.0000000000
      8821      2941  TIP3      OH2             3.2274816386       -4.7518256141       13.2396753451  W2        3027            0.0000000000
      8822      2941  TIP3      H1              4.1605516386       -4.5939556141       13.3835153451  W2        3027            0.0000000000
      8823      2941  TIP3      H2              2.9633616386       -4.0765256141       12.6148253451  W2        3027            0.0000000000
      8824      2942  TIP3      OH2            -3.2040283614      -10.1154456141       12.7224853451  W2        3028            0.0000000000
      8825      2942  TIP3      H1             -2.2901083614      -10.0365556141       12.9958753451  W2        3028            0.0000000000
      8826      2942  TIP3      H2             -3.1967183614      -10.8024856141       12.0560453451  W2        3028            0.0000000000
      8827      2943  TIP3      OH2            -4.5549683614       -4.7225956141       17.7998753451  W2        3029            0.0000000000
      8828      2943  TIP3      H1             -5.2022583614       -5.1844256141       17.2669953451  W2        3029            0.0000000000
      8829      2943  TIP3      H2             -4.2005083614       -5.3942656141       18.3824953451  W2        3029            0.0000000000
      8830      2944  TIP3      OH2            -3.6850483614       -6.6418956141       19.6044953451  W2        3030            0.0000000000
      8831      2944  TIP3      H1             -4.0193683614       -7.5221656141       19.7765153451  W2        3030            0.0000000000
      8832      2944  TIP3      H2             -3.4628083614       -6.2963956141       20.4690553451  W2        3030            0.0000000000
      8833      2945  TIP3      OH2            13.8634316386       -5.8322556141       22.5849753451  W2        3031            0.0000000000
      8834      2945  TIP3      H1             13.8421016386       -5.6474156141       23.5239153451  W2        3031            0.0000000000
      8835      2945  TIP3      H2             14.5540516386       -5.2638556141       22.2441153451  W2        3031            0.0000000000
      8836      2946  TIP3      OH2            13.4267216386       -6.2651456141       25.5068853451  W2        3032            0.0000000000
      8837      2946  TIP3      H1             12.9395916386       -7.0007356141       25.1356253451  W2        3032            0.0000000000
      8838      2946  TIP3      H2             13.9759916386       -6.6587556141       26.1848253451  W2        3032            0.0000000000
      8839      2947  TIP3      OH2            13.1784216386      -12.2189656141       15.6591653451  W2        3034            0.0000000000
      8840      2947  TIP3      H1             14.0285616386      -11.7978756141       15.7863253451  W2        3034            0.0000000000
      8841      2947  TIP3      H2             13.1839316386      -12.9589556141       16.2663053451  W2        3034            0.0000000000
      8842      2948  TIP3      OH2            13.5729816386      -14.1652256141       17.4827353451  W2        3035            0.0000000000
      8843      2948  TIP3      H1             12.8464416386      -14.6449656141       17.8804953451  W2        3035            0.0000000000
      8844      2948  TIP3      H2             14.1543116386      -13.9597556141       18.2148953451  W2        3035            0.0000000000
      8845      2949  TIP3      OH2            13.3321016386      -11.3804756141       22.4304953451  W2        3036            0.0000000000
      8846      2949  TIP3      H1             14.1655216386      -11.7584756141       22.1498553451  W2        3036            0.0000000000
      8847      2949  TIP3      H2             13.4441316386      -10.4373556141       22.3114053451  W2        3036            0.0000000000
      8848      2950  TIP3      OH2            11.8183316386       -8.5027256141       24.7373353451  W2        3037            0.0000000000
      8849      2950  TIP3      H1             11.1708616386       -8.1775756141       25.3628553451  W2        3037            0.0000000000
      8850      2950  TIP3      H2             11.3007316386       -8.9429556141       24.0631653451  W2        3037            0.0000000000
      8851      2951  TIP3      OH2            13.8412916386      -14.2643756141       13.8738653451  W2        3038            0.0000000000
      8852      2951  TIP3      H1             13.3194016386      -13.9079656141       13.1549553451  W2        3038            0.0000000000
      8853      2951  TIP3      H2             13.8082116386      -13.5895956141       14.5519553451  W2        3038            0.0000000000
      8854      2952  TIP3      OH2            12.1901916386      -17.0248156141       12.4245753451  W2        3039            0.0000000000
      8855      2952  TIP3      H1             12.2866316386      -16.3581156141       11.7445453451  W2        3039            0.0000000000
      8856      2952  TIP3      H2             12.0501516386      -17.8401856141       11.9431253451  W2        3039            0.0000000000
      8857      2953  TIP3      OH2            11.3596616386      -15.6445756141       18.0456053451  W2        3040            0.0000000000
      8858      2953  TIP3      H1             11.2095416386      -16.5897156141       18.0253853451  W2        3040            0.0000000000
      8859      2953  TIP3      H2             11.0061116386      -15.3634356141       18.8895153451  W2        3040            0.0000000000
      8860      2954  TIP3      OH2            -3.6050983614      -13.5663556141       22.0559853451  W2        3041            0.0000000000
      8861      2954  TIP3      H1             -3.4208083614      -13.6481856141       21.1202753451  W2        3041            0.0000000000
      8862      2954  TIP3      H2             -2.7558083614      -13.6906556141       22.4796253451  W2        3041            0.0000000000
      8863      2955  TIP3      OH2            11.4375716386      -19.6168356141       11.5421253451  W2        3044            0.0000000000
      8864      2955  TIP3      H1             12.0481516386      -19.9881556141       12.1789453451  W2        3044            0.0000000000
      8865      2955  TIP3      H2             10.6007216386      -20.0381456141       11.7381253451  W2        3044            0.0000000000
      8866      2956  TIP3      OH2            11.0701416386      -18.0619956141       16.5081153451  W2        3045            0.0000000000
      8867      2956  TIP3      H1             11.3498516386      -18.9689556141       16.6322853451  W2        3045            0.0000000000
      8868      2956  TIP3      H2             11.8293116386      -17.6278456141       16.1190353451  W2        3045            0.0000000000
      8869      2957  TIP3      OH2            11.6819716386      -17.4802556141       21.9440053451  W2        3046            0.0000000000
      8870      2957  TIP3      H1             12.6147716386      -17.2682656141       21.9096053451  W2        3046            0.0000000000
      8871      2957  TIP3      H2             11.4467216386      -17.3790456141       22.8663053451  W2        3046            0.0000000000
      8872      2958  TIP3      OH2            11.7111616386      -16.7437256141       24.7199453451  W2        3047            0.0000000000
      8873      2958  TIP3      H1             10.8682916386      -16.4756856141       25.0859253451  W2        3047            0.0000000000
      8874      2958  TIP3      H2             12.1535916386      -15.9215356141       24.5090553451  W2        3047            0.0000000000
      8875      2959  TIP3      OH2            11.6836216386      -20.7990656141       16.5563153451  W2        3050            0.0000000000
      8876      2959  TIP3      H1             11.8661216386      -21.2479156141       17.3818153451  W2        3050            0.0000000000
      8877      2959  TIP3      H2             11.0839116386      -21.3836256141       16.0927753451  W2        3050            0.0000000000
      8878      2960  TIP3      OH2            -2.7863683614      -19.9836956141       21.0881553451  W2        3051            0.0000000000
      8879      2960  TIP3      H1             -2.3412083614      -20.7754456141       21.3901253451  W2        3051            0.0000000000
      8880      2960  TIP3      H2             -2.3200683614      -19.2671756141       21.5187153451  W2        3051            0.0000000000
      8881      2961  TIP3      OH2            -4.4823383614      -16.9843956141       22.1571753451  W2        3052            0.0000000000
      8882      2961  TIP3      H1             -3.9903583614      -17.2053456141       21.3663753451  W2        3052            0.0000000000
      8883      2961  TIP3      H2             -4.1202483614      -16.1440556141       22.4381253451  W2        3052            0.0000000000
      8884      2962  TIP3      OH2            13.5502416386      -20.7312556141       13.0843453451  W2        3054            0.0000000000
      8885      2962  TIP3      H1             13.9625016386      -21.4526856141       12.6091453451  W2        3054            0.0000000000
      8886      2962  TIP3      H2             14.2318916386      -20.0617956141       13.1427753451  W2        3054            0.0000000000
      8887      2963  TIP3      OH2            -4.1686883614      -20.7264856141       16.2114153451  W2        3055            0.0000000000
      8888      2963  TIP3      H1             -5.0938483614      -20.5178256141       16.0819653451  W2        3055            0.0000000000
      8889      2963  TIP3      H2             -3.7146983614      -20.2424056141       15.5216453451  W2        3055            0.0000000000
      8890      2964  TIP3      OH2            10.6020316386       -5.7423156141       18.1571553451  W2        3056            0.0000000000
      8891      2964  TIP3      H1             11.2543216386       -6.0901056141       17.5490653451  W2        3056            0.0000000000
      8892      2964  TIP3      H2             11.1124116386       -5.2539956141       18.8031253451  W2        3056            0.0000000000
      8893      2965  TIP3      OH2            -4.2051483614      -21.9885856141       24.5556653451  W2        3057            0.0000000000
      8894      2965  TIP3      H1             -4.8700983614      -22.2345556141       25.1987553451  W2        3057            0.0000000000
      8895      2965  TIP3      H2             -4.6480183614      -21.3665456141       23.9784653451  W2        3057            0.0000000000
      8896      2966  TIP3      OH2             0.9410716386       -7.8390556141       24.9586453451  W2        3059            0.0000000000
      8897      2966  TIP3      H1              0.5161816386       -7.0292056141       24.6761053451  W2        3059            0.0000000000
      8898      2966  TIP3      H2              1.8453516386       -7.7536456141       24.6566253451  W2        3059            0.0000000000
      8899      2967  TIP3      OH2            -1.6572583614       -4.5826656141       25.0061753451  W2        3063            0.0000000000
      8900      2967  TIP3      H1             -2.3776183614       -4.1425656141       24.5549453451  W2        3063            0.0000000000
      8901      2967  TIP3      H2             -2.0228583614       -4.8331956141       25.8545753451  W2        3063            0.0000000000
      8902      2968  TIP3      OH2             0.8100016386       -4.9822756141       24.0358953451  W2        3064            0.0000000000
      8903      2968  TIP3      H1             -0.0547783614       -4.9104256141       24.4399053451  W2        3064            0.0000000000
      8904      2968  TIP3      H2              0.7549016386       -4.4355456141       23.2521453451  W2        3064            0.0000000000
      8905      2969  TIP3      OH2             5.5205616386       -5.0943856141       23.2114953451  W2        3065            0.0000000000
      8906      2969  TIP3      H1              5.0639616386       -4.5654156141       22.5573353451  W2        3065            0.0000000000
      8907      2969  TIP3      H2              5.6833616386       -4.4912456141       23.9367253451  W2        3065            0.0000000000
      8908      2970  TIP3      OH2             7.8481916386       -6.2164256141       24.1565253451  W2        3066            0.0000000000
      8909      2970  TIP3      H1              6.9435616386       -6.0514056141       23.8907353451  W2        3066            0.0000000000
      8910      2970  TIP3      H2              8.2770516386       -5.3632056141       24.0908653451  W2        3066            0.0000000000
      8911      2971  TIP3      OH2            10.4523816386       -4.6465156141       24.4513053451  W2        3067            0.0000000000
      8912      2971  TIP3      H1             10.2705816386       -3.7306256141       24.2407953451  W2        3067            0.0000000000
      8913      2971  TIP3      H2             10.6291616386       -5.0568056141       23.6047653451  W2        3067            0.0000000000
      8914      2972  TIP3      OH2            -2.2424483614       -5.9594156141       21.9163553451  W2        3068            0.0000000000
      8915      2972  TIP3      H1             -2.2608483614       -6.3849056141       22.7735853451  W2        3068            0.0000000000
      8916      2972  TIP3      H2             -1.4376583614       -6.2779156141       21.5075753451  W2        3068            0.0000000000
      8917      2973  TIP3      OH2            -0.1011383614       -7.2495456141       20.5713453451  W2        3069            0.0000000000
      8918      2973  TIP3      H1             -0.3200683614       -8.1658056141       20.7409453451  W2        3069            0.0000000000
      8919      2973  TIP3      H2              0.7230816386       -7.1095056141       21.0374853451  W2        3069            0.0000000000
      8920      2974  TIP3      OH2             2.4361116386       -6.7796156141       21.4201453451  W2        3070            0.0000000000
      8921      2974  TIP3      H1              2.6486816386       -7.6677156141       21.1332353451  W2        3070            0.0000000000
      8922      2974  TIP3      H2              2.5006216386       -6.8138456141       22.3745453451  W2        3070            0.0000000000
      8923      2975  TIP3      OH2             5.9444816386      -21.1155556141       20.5644753451  W2        3071            0.0000000000
      8924      2975  TIP3      H1              5.2701616386      -21.7449956141       20.8200553451  W2        3071            0.0000000000
      8925      2975  TIP3      H2              6.5084016386      -21.5996656141       19.9612653451  W2        3071            0.0000000000
      8926      2976  TIP3      OH2            11.0872016386      -23.0081556141       20.6771853451  W2        3072            0.0000000000
      8927      2976  TIP3      H1             11.6909616386      -22.4606156141       20.1752853451  W2        3072            0.0000000000
      8928      2976  TIP3      H2             10.2174016386      -22.6891156141       20.4365953451  W2        3072            0.0000000000
      8929      2977  TIP3      OH2            12.8142416386      -21.8692856141       19.0102753451  W2        3073            0.0000000000
      8930      2977  TIP3      H1             13.4259916386      -22.3837156141       18.4836353451  W2        3073            0.0000000000
      8931      2977  TIP3      H2             13.1965816386      -20.9920756141       19.0337153451  W2        3073            0.0000000000
      8932      2978  TIP3      OH2            -1.7287683614      -22.4815256141       18.3864653451  W2        3074            0.0000000000
      8933      2978  TIP3      H1             -2.5057883614      -22.7160356141       17.8790553451  W2        3074            0.0000000000
      8934      2978  TIP3      H2             -1.1984083614      -23.2783156141       18.3952653451  W2        3074            0.0000000000
      8935      2979  TIP3      OH2            -2.8924283614      -22.6837156141       14.1900753451  W2        3075            0.0000000000
      8936      2979  TIP3      H1             -2.4533583614      -22.0726656141       13.5984253451  W2        3075            0.0000000000
      8937      2979  TIP3      H2             -3.5261883614      -22.1453056141       14.6640753451  W2        3075            0.0000000000
      8938      2980  TIP3      OH2             2.8504916386      -22.5548156141       18.1997753451  W2        3076            0.0000000000
      8939      2980  TIP3      H1              3.7248316386      -22.1663856141       18.1702053451  W2        3076            0.0000000000
      8940      2980  TIP3      H2              2.7145716386      -22.7700356141       19.1224953451  W2        3076            0.0000000000
      8941      2981  TIP3      OH2             8.4073316386      -22.5248356141       19.8489453451  W2        3077            0.0000000000
      8942      2981  TIP3      H1              8.4834916386      -22.4296756141       18.8995453451  W2        3077            0.0000000000
      8943      2981  TIP3      H2              8.1322516386      -23.4325456141       19.9778553451  W2        3077            0.0000000000
      8944      2982  TIP3      OH2             9.7605916386      -22.4990556141       15.5414453451  W2        3078            0.0000000000
      8945      2982  TIP3      H1              9.0577016386      -21.8841356141       15.3315853451  W2        3078            0.0000000000
      8946      2982  TIP3      H2              9.3157316386      -23.3363856141       15.6725353451  W2        3078            0.0000000000
      8947      2983  TIP3      OH2            -2.9914783614       -6.7354956141       15.0875853451  W2        3079            0.0000000000
      8948      2983  TIP3      H1             -3.6764883614       -6.7736056141       14.4200953451  W2        3079            0.0000000000
      8949      2983  TIP3      H2             -2.9877583614       -5.8227356141       15.3757953451  W2        3079            0.0000000000
      8950      2984  TIP3      OH2            -1.0315183614      -20.7675656141       12.6324853451  W2        3080            0.0000000000
      8951      2984  TIP3      H1             -0.5401783614      -21.3973256141       12.1050353451  W2        3080            0.0000000000
      8952      2984  TIP3      H2             -0.4078883614      -20.4716256141       13.2956053451  W2        3080            0.0000000000
      8953      2985  TIP3      OH2             3.9944916386      -20.4744156141       15.0895353451  W2        3081            0.0000000000
      8954      2985  TIP3      H1              4.1726216386      -21.1210956141       15.7723953451  W2        3081            0.0000000000
      8955      2985  TIP3      H2              3.9411116386      -19.6406456141       15.5566453451  W2        3081            0.0000000000
      8956      2986  TIP3      OH2             5.8728716386       -5.5260056141       13.4852053451  W2        3082            0.0000000000
      8957      2986  TIP3      H1              6.7388916386       -5.1592656141       13.3070253451  W2        3082            0.0000000000
      8958      2986  TIP3      H2              5.6261516386       -5.9652056141       12.6712853451  W2        3082            0.0000000000
      8959      2987  TIP3      OH2            12.5818316386       -5.9629756141       16.1643153451  W2        3083            0.0000000000
      8960      2987  TIP3      H1             12.3875416386       -6.7107656141       15.5992753451  W2        3083            0.0000000000
      8961      2987  TIP3      H2             12.5428416386       -5.2049656141       15.5811053451  W2        3083            0.0000000000
      8962      2988  TIP3      OH2            -1.1733583614       -5.8154156141       12.1127953451  W2        3086            0.0000000000
      8963      2988  TIP3      H1             -1.4408983614       -5.5291256141       12.9861053451  W2        3086            0.0000000000
      8964      2988  TIP3      H2             -0.4020983614       -6.3614956141       12.2650453451  W2        3086            0.0000000000
      8965      2989  TIP3      OH2            17.5071216386      -14.4560156141       23.3570253451  W2        3089            0.0000000000
      8966      2989  TIP3      H1             17.5483316386      -15.0816856141       24.0802653451  W2        3089            0.0000000000
      8967      2989  TIP3      H2             18.2098916386      -13.8321556141       23.5390653451  W2        3089            0.0000000000
      8968      2990  TIP3      OH2            18.4304316386      -10.0061256141       21.8919353451  W2        3090            0.0000000000
      8969      2990  TIP3      H1             18.0609516386      -10.8080756141       21.5223653451  W2        3090            0.0000000000
      8970      2990  TIP3      H2             19.3715416386      -10.1746356141       21.9382753451  W2        3090            0.0000000000
      8971      2991  TIP3      OH2            15.0404816386      -16.3458656141       17.2848153451  W2        3091            0.0000000000
      8972      2991  TIP3      H1             14.5928216386      -15.4999956141       17.2664653451  W2        3091            0.0000000000
      8973      2991  TIP3      H2             14.4796016386      -16.9254456141       16.7693253451  W2        3091            0.0000000000
      8974      2992  TIP3      OH2            15.7510916386      -14.1839056141       19.4106153451  W2        3092            0.0000000000
      8975      2992  TIP3      H1             15.9644416386      -14.9537456141       19.9379153451  W2        3092            0.0000000000
      8976      2992  TIP3      H2             16.4888516386      -14.0942356141       18.8073753451  W2        3092            0.0000000000
      8977      2993  TIP3      OH2            19.8235916386      -19.1422056141       19.7700953451  W2        3093            0.0000000000
      8978      2993  TIP3      H1             19.8667016386      -18.2823556141       19.3517253451  W2        3093            0.0000000000
      8979      2993  TIP3      H2             19.3660016386      -19.6947356141       19.1364153451  W2        3093            0.0000000000
      8980      2994  TIP3      OH2            16.4437416386      -16.7456256141       20.5322353451  W2        3094            0.0000000000
      8981      2994  TIP3      H1             17.0974016386      -17.2954556141       20.9642453451  W2        3094            0.0000000000
      8982      2994  TIP3      H2             16.4676716386      -17.0197256141       19.6154353451  W2        3094            0.0000000000
      8983      2995  TIP3      OH2            21.6001916386      -15.1954956141       19.7473853451  W2        3095            0.0000000000
      8984      2995  TIP3      H1             22.2162916386      -15.7219556141       20.2567853451  W2        3095            0.0000000000
      8985      2995  TIP3      H2             21.0140716386      -15.8356256141       19.3437453451  W2        3095            0.0000000000
      8986      2996  TIP3      OH2            18.6337816386      -20.2243656141       23.8441753451  W2        3096            0.0000000000
      8987      2996  TIP3      H1             18.4149516386      -19.6943056141       23.0777753451  W2        3096            0.0000000000
      8988      2996  TIP3      H2             17.9658716386      -19.9978156141       24.4913153451  W2        3096            0.0000000000
      8989      2997  TIP3      OH2            21.2029216386      -12.5487956141       24.1315453451  W2        3097            0.0000000000
      8990      2997  TIP3      H1             20.4628316386      -11.9506456141       24.2350653451  W2        3097            0.0000000000
      8991      2997  TIP3      H2             21.9168716386      -11.9948356141       23.8159053451  W2        3097            0.0000000000
      8992      2998  TIP3      OH2            18.2275116386      -18.3321856141       21.7963953451  W2        3098            0.0000000000
      8993      2998  TIP3      H1             18.8411416386      -17.6994256141       22.1696353451  W2        3098            0.0000000000
      8994      2998  TIP3      H2             18.7395816386      -18.8046856141       21.1400853451  W2        3098            0.0000000000
      8995      2999  TIP3      OH2            19.6103516386      -10.5844956141       24.9186953451  W2        3099            0.0000000000
      8996      2999  TIP3      H1             19.6051116386       -9.7051456141       24.5406253451  W2        3099            0.0000000000
      8997      2999  TIP3      H2             18.7567616386      -10.6680856141       25.3436853451  W2        3099            0.0000000000
      8998      3000  TIP3      OH2            15.7314416386      -10.9137056141       15.7006253451  W2        3100            0.0000000000
      8999      3000  TIP3      H1             15.4595316386      -10.6846056141       14.8119153451  W2        3100            0.0000000000
      9000      3000  TIP3      H2             15.7770116386      -10.0758256141       16.1611553451  W2        3100            0.0000000000
      9001      3001  TIP3      OH2            22.6602516386      -22.9188556141       21.2966653451  W2        3101            0.0000000000
      9002      3001  TIP3      H1             22.5426716386      -23.8672556141       21.2424953451  W2        3101            0.0000000000
      9003      3001  TIP3      H2             21.8052616386      -22.5862456141       21.5697753451  W2        3101            0.0000000000
      9004      3002  TIP3      OH2            19.9778816386      -13.2413456141       18.6313353451  W2        3102            0.0000000000
      9005      3002  TIP3      H1             19.6474016386      -13.6120056141       17.8130353451  W2        3102            0.0000000000
      9006      3002  TIP3      H2             20.5662916386      -13.9119456141       18.9781653451  W2        3102            0.0000000000
      9007      3003  TIP3      OH2            21.3446316386       -9.8132856141       21.3125553451  W2        3103            0.0000000000
      9008      3003  TIP3      H1             21.2497616386      -10.3919756141       20.5560153451  W2        3103            0.0000000000
      9009      3003  TIP3      H2             22.0739916386      -10.1847156141       21.8088353451  W2        3103            0.0000000000
      9010      3004  TIP3      OH2            20.3444316386      -14.4727856141       22.2648353451  W2        3104            0.0000000000
      9011      3004  TIP3      H1             20.9096816386      -14.3513656141       21.5019553451  W2        3104            0.0000000000
      9012      3004  TIP3      H2             20.6633216386      -13.8352856141       22.9036853451  W2        3104            0.0000000000
      9013      3005  TIP3      OH2            18.9681516386      -14.1719156141       16.2206153451  W2        3108            0.0000000000
      9014      3005  TIP3      H1             18.6762816386      -13.4037456141       15.7297453451  W2        3108            0.0000000000
      9015      3005  TIP3      H2             18.2936716386      -14.8312956141       16.0577553451  W2        3108            0.0000000000
      9016      3006  TIP3      OH2            15.0611616386      -11.8089956141       25.0355953451  W2        3109            0.0000000000
      9017      3006  TIP3      H1             14.5600016386      -11.8370556141       24.2205653451  W2        3109            0.0000000000
      9018      3006  TIP3      H2             15.0665316386      -12.7146756141       25.3453253451  W2        3109            0.0000000000
      9019      3007  TIP3      OH2            14.8114316386       -9.0286156141       21.9196153451  W2        3110            0.0000000000
      9020      3007  TIP3      H1             15.7574916386       -9.1729156141       21.9005653451  W2        3110            0.0000000000
      9021      3007  TIP3      H2             14.6990616386       -8.2443356141       22.4567353451  W2        3110            0.0000000000
      9022      3008  TIP3      OH2            18.0556416386       -6.2276556141       18.0650853451  W2        3111            0.0000000000
      9023      3008  TIP3      H1             18.2076816386       -6.5756156141       18.9437353451  W2        3111            0.0000000000
      9024      3008  TIP3      H2             17.2046816386       -6.5839256141       17.8098053451  W2        3111            0.0000000000
      9025      3009  TIP3      OH2            17.3102116386      -10.4854556141       26.0788753451  W2        3112            0.0000000000
      9026      3009  TIP3      H1             17.5263416386      -10.8468956141       26.9384553451  W2        3112            0.0000000000
      9027      3009  TIP3      H2             16.4546816386      -10.8600756141       25.8692253451  W2        3112            0.0000000000
      9028      3010  TIP3      OH2            19.9290116386      -22.0154056141       22.0742953451  W2        3113            0.0000000000
      9029      3010  TIP3      H1             19.0673816386      -22.1025856141       21.6665853451  W2        3113            0.0000000000
      9030      3010  TIP3      H2             19.9065816386      -21.1593956141       22.5020553451  W2        3113            0.0000000000
      9031      3011  TIP3      OH2            20.0200216386      -17.0499556141       23.1693153451  W2        3114            0.0000000000
      9032      3011  TIP3      H1             19.3782316386      -17.0902256141       23.8783253451  W2        3114            0.0000000000
      9033      3011  TIP3      H2             20.0572216386      -16.1234856141       22.9316153451  W2        3114            0.0000000000
      9034      3012  TIP3      OH2            20.0169316386      -16.8289456141       18.0813153451  W2        3115            0.0000000000
      9035      3012  TIP3      H1             19.1242216386      -17.1693356141       18.0226953451  W2        3115            0.0000000000
      9036      3012  TIP3      H2             20.4675916386      -17.2058556141       17.3256353451  W2        3115            0.0000000000
      9037      3013  TIP3      OH2            17.7700716386      -16.7296056141       25.0365153451  W2        3116            0.0000000000
      9038      3013  TIP3      H1             17.7320116386      -16.3294456141       25.9052253451  W2        3116            0.0000000000
      9039      3013  TIP3      H2             17.2791816386      -17.5463656141       25.1268053451  W2        3116            0.0000000000
      9040      3014  TIP3      OH2            21.1358116386      -19.3553756141       11.8351153451  W2        3117            0.0000000000
      9041      3014  TIP3      H1             20.7048816386      -19.8003656141       12.5648553451  W2        3117            0.0000000000
      9042      3014  TIP3      H2             20.4176816386      -18.9837456141       11.3228653451  W2        3117            0.0000000000
      9043      3015  TIP3      OH2            14.3781516386      -19.6134256141       18.8869853451  W2        3118            0.0000000000
      9044      3015  TIP3      H1             15.0089216386      -19.6422156141       19.6063753451  W2        3118            0.0000000000
      9045      3015  TIP3      H2             14.8275816386      -20.0385556141       18.1565753451  W2        3118            0.0000000000
      9046      3016  TIP3      OH2            15.6523616386      -18.8672256141       14.3110253451  W2        3119            0.0000000000
      9047      3016  TIP3      H1             16.1265316386      -18.2762356141       13.7261153451  W2        3119            0.0000000000
      9048      3016  TIP3      H2             14.9350016386      -18.3369356141       14.6580353451  W2        3119            0.0000000000
      9049      3017  TIP3      OH2            22.5984616386      -19.4011956141       19.1677253451  W2        3120            0.0000000000
      9050      3017  TIP3      H1             21.6875716386      -19.3445156141       19.4563253451  W2        3120            0.0000000000
      9051      3017  TIP3      H2             23.1037516386      -19.4616456141       19.9784453451  W2        3120            0.0000000000
      9052      3018  TIP3      OH2            17.4268016386      -17.7725656141       17.9944853451  W2        3121            0.0000000000
      9053      3018  TIP3      H1             16.5376016386      -17.6730156141       17.6544453451  W2        3121            0.0000000000
      9054      3018  TIP3      H2             17.7232916386      -18.6142656141       17.6482753451  W2        3121            0.0000000000
      9055      3019  TIP3      OH2            21.0799816386      -17.7723056141       15.6509453451  W2        3122            0.0000000000
      9056      3019  TIP3      H1             22.0115316386      -17.6433056141       15.8292553451  W2        3122            0.0000000000
      9057      3019  TIP3      H2             20.8650116386      -17.1028756141       15.0014153451  W2        3122            0.0000000000
      9058      3020  TIP3      OH2            19.7540016386      -16.5780856141       13.2175553451  W2        3123            0.0000000000
      9059      3020  TIP3      H1             19.2115116386      -16.9577056141       12.5263153451  W2        3123            0.0000000000
      9060      3020  TIP3      H2             20.5874916386      -16.3836156141       12.7889653451  W2        3123            0.0000000000
      9061      3021  TIP3      OH2            18.9204016386      -20.4772856141       17.4731653451  W2        3125            0.0000000000
      9062      3021  TIP3      H1             18.6033516386      -21.3797556141       17.4377053451  W2        3125            0.0000000000
      9063      3021  TIP3      H2             19.7018116386      -20.4755456141       16.9203253451  W2        3125            0.0000000000
      9064      3022  TIP3      OH2            22.5450216386      -18.2252856141       23.4687253451  W2        3126            0.0000000000
      9065      3022  TIP3      H1             21.7095516386      -17.7713356141       23.5789653451  W2        3126            0.0000000000
      9066      3022  TIP3      H2             23.0690816386      -17.9494356141       24.2207153451  W2        3126            0.0000000000
      9067      3023  TIP3      OH2            23.0892816386      -12.0125156141       15.1533653451  W2        3127            0.0000000000
      9068      3023  TIP3      H1             22.3443816386      -12.5199856141       14.8311553451  W2        3127            0.0000000000
      9069      3023  TIP3      H2             22.9550016386      -11.9637156141       16.0998453451  W2        3127            0.0000000000
      9070      3024  TIP3      OH2            18.2141116386      -12.7175156141       20.9231553451  W2        3128            0.0000000000
      9071      3024  TIP3      H1             18.9588316386      -12.7199456141       20.3218053451  W2        3128            0.0000000000
      9072      3024  TIP3      H2             18.2917716386      -13.5411356141       21.4046653451  W2        3128            0.0000000000
      9073      3025  TIP3      OH2            20.5890516386       -9.1996956141       18.3273053451  W2        3131            0.0000000000
      9074      3025  TIP3      H1             21.1162716386       -8.4262556141       18.1271853451  W2        3131            0.0000000000
      9075      3025  TIP3      H2             19.7089016386       -8.9747756141       18.0257053451  W2        3131            0.0000000000
      9076      3026  TIP3      OH2            16.3438216386      -14.3372856141       12.9145453451  W2        3132            0.0000000000
      9077      3026  TIP3      H1             16.9598116386      -13.7105656141       13.2940253451  W2        3132            0.0000000000
      9078      3026  TIP3      H2             15.4820816386      -14.0213056141       13.1861953451  W2        3132            0.0000000000
      9079      3027  TIP3      OH2            22.0162816386      -11.5367056141       17.9037353451  W2        3133            0.0000000000
      9080      3027  TIP3      H1             21.7752816386      -10.6112656141       17.9452653451  W2        3133            0.0000000000
      9081      3027  TIP3      H2             21.2756416386      -11.9955756141       18.3001253451  W2        3133            0.0000000000
      9082      3028  TIP3      OH2            22.5309416386       -7.3873456141       24.2188453451  W2        3134            0.0000000000
      9083      3028  TIP3      H1             22.8934116386       -6.5327856141       23.9852853451  W2        3134            0.0000000000
      9084      3028  TIP3      H2             23.0624616386       -7.6791856141       24.9594753451  W2        3134            0.0000000000
      9085      3029  TIP3      OH2            20.6993616386       -6.5149456141       17.4489553451  W2        3135            0.0000000000
      9086      3029  TIP3      H1             19.7494116386       -6.4092056141       17.5002853451  W2        3135            0.0000000000
      9087      3029  TIP3      H2             21.0511716386       -5.6942056141       17.7937053451  W2        3135            0.0000000000
      9088      3030  TIP3      OH2            16.8560316386      -19.5035556141       25.7961453451  W2        3136            0.0000000000
      9089      3030  TIP3      H1             15.9632616386      -19.1650156141       25.7285453451  W2        3136            0.0000000000
      9090      3030  TIP3      H2             16.7573116386      -20.3589456141       26.2142253451  W2        3136            0.0000000000
      9091      3031  TIP3      OH2            16.5072316386       -7.6991156141       24.2310853451  W2        3137            0.0000000000
      9092      3031  TIP3      H1             16.7242616386       -8.6308756141       24.2000553451  W2        3137            0.0000000000
      9093      3031  TIP3      H2             16.7535816386       -7.4246156141       25.1143653451  W2        3137            0.0000000000
      9094      3032  TIP3      OH2            22.3686916386       -9.2476156141       11.4403053451  W2        3138            0.0000000000
      9095      3032  TIP3      H1             22.6076716386       -9.9958056141       10.8931953451  W2        3138            0.0000000000
      9096      3032  TIP3      H2             22.0998216386       -9.6354456141       12.2730853451  W2        3138            0.0000000000
      9097      3033  TIP3      OH2            21.3057516386       -9.6772356141       13.8965653451  W2        3139            0.0000000000
      9098      3033  TIP3      H1             21.4525516386      -10.1972556141       14.6866553451  W2        3139            0.0000000000
      9099      3033  TIP3      H2             21.3029216386       -8.7704756141       14.2031553451  W2        3139            0.0000000000
      9100      3034  TIP3      OH2            17.7588616386      -12.4249056141       14.4071053451  W2        3140            0.0000000000
      9101      3034  TIP3      H1             17.0727916386      -12.0726556141       14.9740753451  W2        3140            0.0000000000
      9102      3034  TIP3      H2             18.2816516386      -11.6619456141       14.1605353451  W2        3140            0.0000000000
      9103      3035  TIP3      OH2            21.3817816386       -6.9361556141       14.6276753451  W2        3141            0.0000000000
      9104      3035  TIP3      H1             21.5426516386       -6.1364056141       14.1269353451  W2        3141            0.0000000000
      9105      3035  TIP3      H2             21.1845616386       -6.6295556141       15.5127353451  W2        3141            0.0000000000
      9106      3036  TIP3      OH2            20.1162216386      -20.2382356141       14.2434353451  W2        3142            0.0000000000
      9107      3036  TIP3      H1             20.0327016386      -19.3499256141       14.5900753451  W2        3142            0.0000000000
      9108      3036  TIP3      H2             21.0062516386      -20.5035656141       14.4751153451  W2        3142            0.0000000000
      9109      3037  TIP3      OH2            18.3747516386       -9.8110156141       13.3038853451  W2        3143            0.0000000000
      9110      3037  TIP3      H1             18.9669016386       -9.1115356141       13.5801253451  W2        3143            0.0000000000
      9111      3037  TIP3      H2             18.8340516386      -10.2440656141       12.5843453451  W2        3143            0.0000000000
      9112      3038  TIP3      OH2            16.6906716386      -17.1467156141       12.4198253451  W2        3144            0.0000000000
      9113      3038  TIP3      H1             16.6459316386      -16.2074056141       12.5985253451  W2        3144            0.0000000000
      9114      3038  TIP3      H2             15.8029916386      -17.3822256141       12.1500353451  W2        3144            0.0000000000
      9115      3039  TIP3      OH2            17.4988716386      -22.3650556141       21.0929253451  W2        3145            0.0000000000
      9116      3039  TIP3      H1             17.2698516386      -22.3058056141       20.1654253451  W2        3145            0.0000000000
      9117      3039  TIP3      H2             17.0562116386      -23.1565056141       21.3993353451  W2        3145            0.0000000000
      9118      3040  TIP3      OH2            16.4292016386       -8.4243456141       17.2535053451  W2        3146            0.0000000000
      9119      3040  TIP3      H1             15.5970616386       -7.9520756141       17.2806453451  W2        3146            0.0000000000
      9120      3040  TIP3      H2             16.9750316386       -7.9145856141       16.6548153451  W2        3146            0.0000000000
      9121      3041  TIP3      OH2            19.9658916386      -11.6579956141       11.6701953451  W2        3150            0.0000000000
      9122      3041  TIP3      H1             20.0303016386      -12.4520356141       12.2008353451  W2        3150            0.0000000000
      9123      3041  TIP3      H2             20.6188116386      -11.7767156141       10.9803953451  W2        3150            0.0000000000
      9124      3042  TIP3      OH2            21.1152716386      -13.6853756141       13.9759953451  W2        3153            0.0000000000
      9125      3042  TIP3      H1             20.6554716386      -14.1695456141       14.6618453451  W2        3153            0.0000000000
      9126      3042  TIP3      H2             21.3701416386      -14.3538356141       13.3400453451  W2        3153            0.0000000000
      9127      3043  TIP3      OH2            22.1863116386      -15.4421956141       12.2383153451  W2        3155            0.0000000000
      9128      3043  TIP3      H1             22.0058116386      -15.5970756141       11.3111453451  W2        3155            0.0000000000
      9129      3043  TIP3      H2             23.1363616386      -15.3343256141       12.2831053451  W2        3155            0.0000000000
      9130      3044  TIP3      OH2            21.1561416386      -20.0680056141       24.9070053451  W2        3157            0.0000000000
      9131      3044  TIP3      H1             21.6918916386      -19.6163356141       24.2549353451  W2        3157            0.0000000000
      9132      3044  TIP3      H2             20.3041016386      -20.1760256141       24.4844153451  W2        3157            0.0000000000
      9133      3045  TIP3      OH2            22.7379816386      -14.6283856141       25.1465253451  W2        3158            0.0000000000
      9134      3045  TIP3      H1             23.4884616386      -14.7846356141       24.5733053451  W2        3158            0.0000000000
      9135      3045  TIP3      H2             22.3988116386      -13.7767256141       24.8710753451  W2        3158            0.0000000000
      9136      3046  TIP3      OH2            21.9616916386      -22.6114356141       25.3383653451  W2        3160            0.0000000000
      9137      3046  TIP3      H1             21.8636516386      -21.6651156141       25.2329853451  W2        3160            0.0000000000
      9138      3046  TIP3      H2             21.2193116386      -22.9840556141       24.8627153451  W2        3160            0.0000000000
      9139      3047  TIP3      OH2            22.0834816386       -4.7518256141       13.2396753451  W2        3165            0.0000000000
      9140      3047  TIP3      H1             23.0165516386       -4.5939556141       13.3835153451  W2        3165            0.0000000000
      9141      3047  TIP3      H2             21.8193616386       -4.0765256141       12.6148253451  W2        3165            0.0000000000
      9142      3048  TIP3      OH2            15.6519716386      -10.1154456141       12.7224853451  W2        3166            0.0000000000
      9143      3048  TIP3      H1             16.5658916386      -10.0365556141       12.9958753451  W2        3166            0.0000000000
      9144      3048  TIP3      H2             15.6592816386      -10.8024856141       12.0560453451  W2        3166            0.0000000000
      9145      3049  TIP3      OH2            14.3010316386       -4.7225956141       17.7998753451  W2        3167            0.0000000000
      9146      3049  TIP3      H1             13.6537416386       -5.1844256141       17.2669953451  W2        3167            0.0000000000
      9147      3049  TIP3      H2             14.6554916386       -5.3942656141       18.3824953451  W2        3167            0.0000000000
      9148      3050  TIP3      OH2            15.1709516386       -6.6418956141       19.6044953451  W2        3168            0.0000000000
      9149      3050  TIP3      H1             14.8366316386       -7.5221656141       19.7765153451  W2        3168            0.0000000000
      9150      3050  TIP3      H2             15.3931916386       -6.2963956141       20.4690553451  W2        3168            0.0000000000
      9151      3051  TIP3      OH2            15.2509016386      -13.5663556141       22.0559853451  W2        3169            0.0000000000
      9152      3051  TIP3      H1             15.4351916386      -13.6481856141       21.1202753451  W2        3169            0.0000000000
      9153      3051  TIP3      H2             16.1001916386      -13.6906556141       22.4796253451  W2        3169            0.0000000000
      9154      3052  TIP3      OH2            16.0696316386      -19.9836956141       21.0881553451  W2        3171            0.0000000000
      9155      3052  TIP3      H1             16.5147916386      -20.7754456141       21.3901253451  W2        3171            0.0000000000
      9156      3052  TIP3      H2             16.5359316386      -19.2671756141       21.5187153451  W2        3171            0.0000000000
      9157      3053  TIP3      OH2            14.3736616386      -16.9843956141       22.1571753451  W2        3172            0.0000000000
      9158      3053  TIP3      H1             14.8656416386      -17.2053456141       21.3663753451  W2        3172            0.0000000000
      9159      3053  TIP3      H2             14.7357516386      -16.1440556141       22.4381253451  W2        3172            0.0000000000
      9160      3054  TIP3      OH2            14.6873116386      -20.7264856141       16.2114153451  W2        3173            0.0000000000
      9161      3054  TIP3      H1             13.7621516386      -20.5178256141       16.0819653451  W2        3173            0.0000000000
      9162      3054  TIP3      H2             15.1413016386      -20.2424056141       15.5216453451  W2        3173            0.0000000000
      9163      3055  TIP3      OH2            14.6508516386      -21.9885856141       24.5556653451  W2        3174            0.0000000000
      9164      3055  TIP3      H1             13.9859016386      -22.2345556141       25.1987553451  W2        3174            0.0000000000
      9165      3055  TIP3      H2             14.2079816386      -21.3665456141       23.9784653451  W2        3174            0.0000000000
      9166      3056  TIP3      OH2            19.7970716386       -7.8390556141       24.9586453451  W2        3176            0.0000000000
      9167      3056  TIP3      H1             19.3721816386       -7.0292056141       24.6761053451  W2        3176            0.0000000000
      9168      3056  TIP3      H2             20.7013516386       -7.7536456141       24.6566253451  W2        3176            0.0000000000
      9169      3057  TIP3      OH2            17.1987416386       -4.5826656141       25.0061753451  W2        3177            0.0000000000
      9170      3057  TIP3      H1             16.4783816386       -4.1425656141       24.5549453451  W2        3177            0.0000000000
      9171      3057  TIP3      H2             16.8331416386       -4.8331956141       25.8545753451  W2        3177            0.0000000000
      9172      3058  TIP3      OH2            19.6660016386       -4.9822756141       24.0358953451  W2        3178            0.0000000000
      9173      3058  TIP3      H1             18.8012216386       -4.9104256141       24.4399053451  W2        3178            0.0000000000
      9174      3058  TIP3      H2             19.6109016386       -4.4355456141       23.2521453451  W2        3178            0.0000000000
      9175      3059  TIP3      OH2            16.6135516386       -5.9594156141       21.9163553451  W2        3179            0.0000000000
      9176      3059  TIP3      H1             16.5951516386       -6.3849056141       22.7735853451  W2        3179            0.0000000000
      9177      3059  TIP3      H2             17.4183416386       -6.2779156141       21.5075753451  W2        3179            0.0000000000
      9178      3060  TIP3      OH2            18.7548616386       -7.2495456141       20.5713453451  W2        3180            0.0000000000
      9179      3060  TIP3      H1             18.5359316386       -8.1658056141       20.7409453451  W2        3180            0.0000000000
      9180      3060  TIP3      H2             19.5790816386       -7.1095056141       21.0374853451  W2        3180            0.0000000000
      9181      3061  TIP3      OH2            21.2921116386       -6.7796156141       21.4201453451  W2        3181            0.0000000000
      9182      3061  TIP3      H1             21.5046816386       -7.6677156141       21.1332353451  W2        3181            0.0000000000
      9183      3061  TIP3      H2             21.3566216386       -6.8138456141       22.3745453451  W2        3181            0.0000000000
      9184      3062  TIP3      OH2            17.1272316386      -22.4815256141       18.3864653451  W2        3182            0.0000000000
      9185      3062  TIP3      H1             16.3502116386      -22.7160356141       17.8790553451  W2        3182            0.0000000000
      9186      3062  TIP3      H2             17.6575916386      -23.2783156141       18.3952653451  W2        3182            0.0000000000
      9187      3063  TIP3      OH2            15.9635716386      -22.6837156141       14.1900753451  W2        3183            0.0000000000
      9188      3063  TIP3      H1             16.4026416386      -22.0726656141       13.5984253451  W2        3183            0.0000000000
      9189      3063  TIP3      H2             15.3298116386      -22.1453056141       14.6640753451  W2        3183            0.0000000000
      9190      3064  TIP3      OH2            21.7064916386      -22.5548156141       18.1997753451  W2        3184            0.0000000000
      9191      3064  TIP3      H1             22.5808316386      -22.1663856141       18.1702053451  W2        3184            0.0000000000
      9192      3064  TIP3      H2             21.5705716386      -22.7700356141       19.1224953451  W2        3184            0.0000000000
      9193      3065  TIP3      OH2            15.8645216386       -6.7354956141       15.0875853451  W2        3185            0.0000000000
      9194      3065  TIP3      H1             15.1795116386       -6.7736056141       14.4200953451  W2        3185            0.0000000000
      9195      3065  TIP3      H2             15.8682416386       -5.8227356141       15.3757953451  W2        3185            0.0000000000
      9196      3066  TIP3      OH2            17.8244816386      -20.7675656141       12.6324853451  W2        3186            0.0000000000
      9197      3066  TIP3      H1             18.3158216386      -21.3973256141       12.1050353451  W2        3186            0.0000000000
      9198      3066  TIP3      H2             18.4481116386      -20.4716256141       13.2956053451  W2        3186            0.0000000000
      9199      3067  TIP3      OH2            22.8504916386      -20.4744156141       15.0895353451  W2        3187            0.0000000000
      9200      3067  TIP3      H1             23.0286216386      -21.1210956141       15.7723953451  W2        3187            0.0000000000
      9201      3067  TIP3      H2             22.7971116386      -19.6406456141       15.5566453451  W2        3187            0.0000000000
      9202      3068  TIP3      OH2            17.6826416386       -5.8154156141       12.1127953451  W2        3190            0.0000000000
      9203      3068  TIP3      H1             17.4151016386       -5.5291256141       12.9861053451  W2        3190            0.0000000000
      9204      3068  TIP3      H2             18.4539016386       -6.3614956141       12.2650453451  W2        3190            0.0000000000
      9205      3069  TIP3      OH2           -11.5065083614        5.5307043859       18.3452153451  W2        3191            0.0000000000
      9206      3069  TIP3      H1            -11.4173983614        6.4745243859       18.2129253451  W2        3191            0.0000000000
      9207      3069  TIP3      H2            -12.1447483614        5.2553443859       17.6871553451  W2        3191            0.0000000000
      9208      3070  TIP3      OH2           -12.5733783614        4.7857743859       21.7640353451  W2        3192            0.0000000000
      9209      3070  TIP3      H1            -12.6116283614        4.1394043859       22.4689953451  W2        3192            0.0000000000
      9210      3070  TIP3      H2            -12.8957283614        4.3192143859       20.9929053451  W2        3192            0.0000000000
      9211      3071  TIP3      OH2           -20.2048783614        4.3999843859       23.3570253451  W2        3193            0.0000000000
      9212      3071  TIP3      H1            -20.1636683614        3.7743143859       24.0802653451  W2        3193            0.0000000000
      9213      3071  TIP3      H2            -19.5021083614        5.0238443859       23.5390653451  W2        3193            0.0000000000
      9214      3072  TIP3      OH2            -8.8673583614        7.7248143859       20.0655453451  W2        3194            0.0000000000
      9215      3072  TIP3      H1             -9.3080883614        7.0044143859       20.5161053451  W2        3194            0.0000000000
      9216      3072  TIP3      H2             -8.8803883614        8.4455343859       20.6953153451  W2        3194            0.0000000000
      9217      3073  TIP3      OH2           -19.2815683614        8.8498743859       21.8919353451  W2        3195            0.0000000000
      9218      3073  TIP3      H1            -19.6510483614        8.0479243859       21.5223653451  W2        3195            0.0000000000
      9219      3073  TIP3      H2            -18.3404583614        8.6813643859       21.9382753451  W2        3195            0.0000000000
      9220      3074  TIP3      OH2           -22.6715183614        2.5101343859       17.2848153451  W2        3196            0.0000000000
      9221      3074  TIP3      H1            -23.1191783614        3.3560043859       17.2664653451  W2        3196            0.0000000000
      9222      3074  TIP3      H2            -23.2323983614        1.9305543859       16.7693253451  W2        3196            0.0000000000
      9223      3075  TIP3      OH2           -21.9609083614        4.6720943859       19.4106153451  W2        3197            0.0000000000
      9224      3075  TIP3      H1            -21.7475583614        3.9022543859       19.9379153451  W2        3197            0.0000000000
      9225      3075  TIP3      H2            -21.2231483614        4.7617643859       18.8073753451  W2        3197            0.0000000000
      9226      3076  TIP3      OH2           -11.7558083614       12.8289843859       20.2775853451  W2        3198            0.0000000000
      9227      3076  TIP3      H1            -11.1361683614       12.1524543859       20.0045053451  W2        3198            0.0000000000
      9228      3076  TIP3      H2            -11.9640683614       12.6110643859       21.1860753451  W2        3198            0.0000000000
      9229      3077  TIP3      OH2           -14.1839383614        7.2179143859       22.1701353451  W2        3199            0.0000000000
      9230      3077  TIP3      H1            -13.8801483614        6.5320543859       21.5755453451  W2        3199            0.0000000000
      9231      3077  TIP3      H2            -13.4625383614        7.3367843859       22.7879353451  W2        3199            0.0000000000
      9232      3078  TIP3      OH2            -5.5209583614       -1.1805556141       23.0307553451  W2        3200            0.0000000000
      9233      3078  TIP3      H1             -5.4717383614       -0.5704356141       23.7666653451  W2        3200            0.0000000000
      9234      3078  TIP3      H2             -5.0954483614       -0.7194656141       22.3078653451  W2        3200            0.0000000000
      9235      3079  TIP3      OH2           -11.0432383614        1.6121543859       22.4976153451  W2        3201            0.0000000000
      9236      3079  TIP3      H1            -10.9006483614        0.6658543859       22.5177753451  W2        3201            0.0000000000
      9237      3079  TIP3      H2            -11.1493383614        1.8191343859       21.5691053451  W2        3201            0.0000000000
      9238      3080  TIP3      OH2           -17.8884083614       -0.2862056141       19.7700953451  W2        3202            0.0000000000
      9239      3080  TIP3      H1            -17.8452983614        0.5736443859       19.3517253451  W2        3202            0.0000000000
      9240      3080  TIP3      H2            -18.3459983614       -0.8387356141       19.1364153451  W2        3202            0.0000000000
      9241      3081  TIP3      OH2           -10.1661383614       -0.1556456141       18.1709253451  W2        3203            0.0000000000
      9242      3081  TIP3      H1             -9.5197083614       -0.4843256141       18.7956853451  W2        3203            0.0000000000
      9243      3081  TIP3      H2             -9.6561983614        0.3622543859       17.5480653451  W2        3203            0.0000000000
      9244      3082  TIP3      OH2           -21.2682583614        2.1103743859       20.5322353451  W2        3204            0.0000000000
      9245      3082  TIP3      H1            -20.6145983614        1.5605443859       20.9642453451  W2        3204            0.0000000000
      9246      3082  TIP3      H2            -21.2443283614        1.8362743859       19.6154353451  W2        3204            0.0000000000
      9247      3083  TIP3      OH2           -16.1118083614        3.6605043859       19.7473853451  W2        3205            0.0000000000
      9248      3083  TIP3      H1            -15.4957083614        3.1340443859       20.2567853451  W2        3205            0.0000000000
      9249      3083  TIP3      H2            -16.6979283614        3.0203743859       19.3437453451  W2        3205            0.0000000000
      9250      3084  TIP3      OH2            -5.1294983614        0.2973643859       25.2667353451  W2        3206            0.0000000000
      9251      3084  TIP3      H1             -5.8180383614        0.9554343859       25.1713953451  W2        3206            0.0000000000
      9252      3084  TIP3      H2             -5.1140383614        0.1001543859       26.2032753451  W2        3206            0.0000000000
      9253      3085  TIP3      OH2           -19.0782183614       -1.3683656141       23.8441753451  W2        3207            0.0000000000
      9254      3085  TIP3      H1            -19.2970483614       -0.8383056141       23.0777753451  W2        3207            0.0000000000
      9255      3085  TIP3      H2            -19.7461283614       -1.1418156141       24.4913153451  W2        3207            0.0000000000
      9256      3086  TIP3      OH2           -11.7092383614        8.1317443859       17.3880853451  W2        3208            0.0000000000
      9257      3086  TIP3      H1            -12.0047283614        7.8089743859       16.5367753451  W2        3208            0.0000000000
      9258      3086  TIP3      H2            -12.0334583614        9.0314143859       17.4293453451  W2        3208            0.0000000000
      9259      3087  TIP3      OH2           -16.5090783614        6.3072043859       24.1315453451  W2        3209            0.0000000000
      9260      3087  TIP3      H1            -17.2491683614        6.9053543859       24.2350653451  W2        3209            0.0000000000
      9261      3087  TIP3      H2            -15.7951283614        6.8611643859       23.8159053451  W2        3209            0.0000000000
      9262      3088  TIP3      OH2            -8.4022983614       -0.8647156141       20.1515153451  W2        3210            0.0000000000
      9263      3088  TIP3      H1             -8.6174983614       -1.6303756141       20.6841153451  W2        3210            0.0000000000
      9264      3088  TIP3      H2             -7.7465583614       -0.3922556141       20.6643653451  W2        3210            0.0000000000
      9265      3089  TIP3      OH2           -19.4844883614        0.5238143859       21.7963953451  W2        3211            0.0000000000
      9266      3089  TIP3      H1            -18.8708583614        1.1565743859       22.1696353451  W2        3211            0.0000000000
      9267      3089  TIP3      H2            -18.9724183614        0.0513143859       21.1400853451  W2        3211            0.0000000000
      9268      3090  TIP3      OH2           -18.1016483614        8.2715043859       24.9186953451  W2        3212            0.0000000000
      9269      3090  TIP3      H1            -18.1068883614        9.1508543859       24.5406253451  W2        3212            0.0000000000
      9270      3090  TIP3      H2            -18.9552383614        8.1879143859       25.3436853451  W2        3212            0.0000000000
      9271      3091  TIP3      OH2           -21.9805583614        7.9422943859       15.7006253451  W2        3213            0.0000000000
      9272      3091  TIP3      H1            -22.2524683614        8.1713943859       14.8119153451  W2        3213            0.0000000000
      9273      3091  TIP3      H2            -21.9349883614        8.7801743859       16.1611553451  W2        3213            0.0000000000
      9274      3092  TIP3      OH2            -8.3555883614        9.5638843859       22.4134753451  W2        3214            0.0000000000
      9275      3092  TIP3      H1             -9.2972183614        9.6222743859       22.5751653451  W2        3214            0.0000000000
      9276      3092  TIP3      H2             -8.0789783614       10.4699343859       22.2764453451  W2        3214            0.0000000000
      9277      3093  TIP3      OH2            -8.0548883614       -2.1495856141       23.8308653451  W2        3215            0.0000000000
      9278      3093  TIP3      H1             -8.7909683614       -1.5388756141       23.7929953451  W2        3215            0.0000000000
      9279      3093  TIP3      H2             -7.3714883614       -1.7346856141       23.3045053451  W2        3215            0.0000000000
      9280      3094  TIP3      OH2           -15.0517483614       -4.0628556141       21.2966653451  W2        3216            0.0000000000
      9281      3094  TIP3      H1            -15.1693283614       -5.0112556141       21.2424953451  W2        3216            0.0000000000
      9282      3094  TIP3      H2            -15.9067383614       -3.7302456141       21.5697753451  W2        3216            0.0000000000
      9283      3095  TIP3      OH2           -10.1034683614       11.3452343859       19.0386353451  W2        3217            0.0000000000
      9284      3095  TIP3      H1             -9.6782383614       10.6380243859       18.5535953451  W2        3217            0.0000000000
      9285      3095  TIP3      H2             -9.7864683614       12.1465043859       18.6218553451  W2        3217            0.0000000000
      9286      3096  TIP3      OH2            -8.9438183614        9.2460843859       17.5472953451  W2        3218            0.0000000000
      9287      3096  TIP3      H1             -9.2013383614        8.5560943859       16.9358853451  W2        3218            0.0000000000
      9288      3096  TIP3      H2             -8.8727383614        8.8032043859       18.3928853451  W2        3218            0.0000000000
      9289      3097  TIP3      OH2            -7.2577983614        7.8127543859       26.0246453451  W2        3219            0.0000000000
      9290      3097  TIP3      H1             -7.1181683614        7.2210043859       25.2853453451  W2        3219            0.0000000000
      9291      3097  TIP3      H2             -7.0905183614        8.6853443859       25.6685253451  W2        3219            0.0000000000
      9292      3098  TIP3      OH2           -12.7852583614        4.7747043859       15.7972453451  W2        3220            0.0000000000
      9293      3098  TIP3      H1            -13.4967083614        5.3096743859       15.4452953451  W2        3220            0.0000000000
      9294      3098  TIP3      H2            -12.0942983614        4.8299143859       15.1371353451  W2        3220            0.0000000000
      9295      3099  TIP3      OH2           -12.7313383614        3.2321343859       12.8357453451  W2        3221            0.0000000000
      9296      3099  TIP3      H1            -12.0303483614        3.2548243859       13.4871453451  W2        3221            0.0000000000
      9297      3099  TIP3      H2            -12.4290483614        2.6041043859       12.1796753451  W2        3221            0.0000000000
      9298      3100  TIP3      OH2            -5.4158683614        4.1525543859       24.0906853451  W2        3222            0.0000000000
      9299      3100  TIP3      H1             -6.0684583614        4.8471143859       24.1797753451  W2        3222            0.0000000000
      9300      3100  TIP3      H2             -4.9508383614        4.3626443859       23.2808453451  W2        3222            0.0000000000
      9301      3101  TIP3      OH2            -9.3794883614        4.9840343859       16.7488353451  W2        3223            0.0000000000
      9302      3101  TIP3      H1            -10.1113883614        5.2124043859       17.3218953451  W2        3223            0.0000000000
      9303      3101  TIP3      H2             -8.9322683614        4.2703043859       17.2035853451  W2        3223            0.0000000000
      9304      3102  TIP3      OH2            -9.4821383614        3.1582943859       25.8165353451  W2        3224            0.0000000000
      9305      3102  TIP3      H1             -9.4022283614        3.9217343859       26.3883853451  W2        3224            0.0000000000
      9306      3102  TIP3      H2            -10.0833683614        3.4375343859       25.1260453451  W2        3224            0.0000000000
      9307      3103  TIP3      OH2           -17.7341183614        5.6146543859       18.6313353451  W2        3225            0.0000000000
      9308      3103  TIP3      H1            -18.0645983614        5.2439943859       17.8130353451  W2        3225            0.0000000000
      9309      3103  TIP3      H2            -17.1457083614        4.9440543859       18.9781653451  W2        3225            0.0000000000
      9310      3104  TIP3      OH2           -16.3673683614        9.0427143859       21.3125553451  W2        3226            0.0000000000
      9311      3104  TIP3      H1            -16.4622383614        8.4640243859       20.5560153451  W2        3226            0.0000000000
      9312      3104  TIP3      H2            -15.6380083614        8.6712843859       21.8088353451  W2        3226            0.0000000000
      9313      3105  TIP3      OH2           -17.3675683614        4.3832143859       22.2648353451  W2        3227            0.0000000000
      9314      3105  TIP3      H1            -16.8023183614        4.5046343859       21.5019553451  W2        3227            0.0000000000
      9315      3105  TIP3      H2            -17.0486783614        5.0207143859       22.9036853451  W2        3227            0.0000000000
      9316      3106  TIP3      OH2           -11.0583483614        9.8864043859       22.9988853451  W2        3228            0.0000000000
      9317      3106  TIP3      H1            -11.2986883614       10.5487143859       23.6468053451  W2        3228            0.0000000000
      9318      3106  TIP3      H2            -11.2565283614        9.0519243859       23.4238453451  W2        3228            0.0000000000
      9319      3107  TIP3      OH2           -10.5085383614        4.1463243859       14.4339553451  W2        3230            0.0000000000
      9320      3107  TIP3      H1             -9.9289883614        4.2963543859       15.1808453451  W2        3230            0.0000000000
      9321      3107  TIP3      H2            -10.0945383614        4.6170643859       13.7105953451  W2        3230            0.0000000000
      9322      3108  TIP3      OH2           -12.7820483614       10.8831743859       17.8692653451  W2        3232            0.0000000000
      9323      3108  TIP3      H1            -12.3082883614       11.1788043859       18.6466853451  W2        3232            0.0000000000
      9324      3108  TIP3      H2            -13.3451183614       11.6213343859       17.6362253451  W2        3232            0.0000000000
      9325      3109  TIP3      OH2            -6.8096983614       -4.1036356141       14.2469253451  W2        3234            0.0000000000
      9326      3109  TIP3      H1             -7.7096283614       -3.9647356141       14.5419853451  W2        3234            0.0000000000
      9327      3109  TIP3      H2             -6.5578583614       -3.2721756141       13.8450953451  W2        3234            0.0000000000
      9328      3110  TIP3      OH2           -18.7438483614        4.6840843859       16.2206153451  W2        3235            0.0000000000
      9329      3110  TIP3      H1            -19.0357183614        5.4522543859       15.7297453451  W2        3235            0.0000000000
      9330      3110  TIP3      H2            -19.4183283614        4.0247043859       16.0577553451  W2        3235            0.0000000000
      9331      3111  TIP3      OH2            -5.6205583614       10.2626043859       12.6233153451  W2        3236            0.0000000000
      9332      3111  TIP3      H1             -5.5472083614       11.2016243859       12.7938453451  W2        3236            0.0000000000
      9333      3111  TIP3      H2             -4.7150483614        9.9574643859       12.5670453451  W2        3236            0.0000000000
      9334      3112  TIP3      OH2           -22.6508383614        7.0470043859       25.0355953451  W2        3237            0.0000000000
      9335      3112  TIP3      H1            -23.1519983614        7.0189443859       24.2205653451  W2        3237            0.0000000000
      9336      3112  TIP3      H2            -22.6454683614        6.1413243859       25.3453253451  W2        3237            0.0000000000
      9337      3113  TIP3      OH2           -22.9005683614        9.8273843859       21.9196153451  W2        3238            0.0000000000
      9338      3113  TIP3      H1            -21.9545083614        9.6830843859       21.9005653451  W2        3238            0.0000000000
      9339      3113  TIP3      H2            -23.0129383614       10.6116643859       22.4567353451  W2        3238            0.0000000000
      9340      3114  TIP3      OH2           -13.3097383614       13.8396443859       16.2841853451  W2        3241            0.0000000000
      9341      3114  TIP3      H1            -13.3851383614       13.7183643859       15.3377053451  W2        3241            0.0000000000
      9342      3114  TIP3      H2            -13.2768683614       14.7889143859       16.4026453451  W2        3241            0.0000000000
      9343      3115  TIP3      OH2           -19.6563583614       12.6283443859       18.0650853451  W2        3242            0.0000000000
      9344      3115  TIP3      H1            -19.5043183614       12.2803843859       18.9437353451  W2        3242            0.0000000000
      9345      3115  TIP3      H2            -20.5073183614       12.2720743859       17.8098053451  W2        3242            0.0000000000
      9346      3116  TIP3      OH2           -10.2081383614       12.9936643859       13.2864253451  W2        3243            0.0000000000
      9347      3116  TIP3      H1             -9.8332983614       12.2492743859       12.8156853451  W2        3243            0.0000000000
      9348      3116  TIP3      H2            -10.2037683614       12.7237243859       14.2047553451  W2        3243            0.0000000000
      9349      3117  TIP3      OH2           -10.5393283614       12.9193743859       16.0356453451  W2        3244            0.0000000000
      9350      3117  TIP3      H1            -11.4743483614       13.0195643859       16.2143453451  W2        3244            0.0000000000
      9351      3117  TIP3      H2            -10.2591383614       12.2099743859       16.6139653451  W2        3244            0.0000000000
      9352      3118  TIP3      OH2           -20.4017883614        8.3705443859       26.0788753451  W2        3246            0.0000000000
      9353      3118  TIP3      H1            -20.1856583614        8.0091043859       26.9384553451  W2        3246            0.0000000000
      9354      3118  TIP3      H2            -21.2573183614        7.9959243859       25.8692253451  W2        3246            0.0000000000
      9355      3119  TIP3      OH2           -17.7829883614       -3.1594056141       22.0742953451  W2        3247            0.0000000000
      9356      3119  TIP3      H1            -18.6446183614       -3.2465856141       21.6665853451  W2        3247            0.0000000000
      9357      3119  TIP3      H2            -17.8054183614       -2.3033956141       22.5020553451  W2        3247            0.0000000000
      9358      3120  TIP3      OH2           -13.1202083614       -3.4373656141       25.4489953451  W2        3248            0.0000000000
      9359      3120  TIP3      H1            -12.6998983614       -3.8526556141       26.2020553451  W2        3248            0.0000000000
      9360      3120  TIP3      H2            -14.0532483614       -3.6160356141       25.5661953451  W2        3248            0.0000000000
      9361      3121  TIP3      OH2            -9.0312283614        5.1791543859       12.0637453451  W2        3250            0.0000000000
      9362      3121  TIP3      H1             -8.9891483614        4.9565443859       11.1337453451  W2        3250            0.0000000000
      9363      3121  TIP3      H2             -8.1820183614        5.5778643859       12.2537353451  W2        3250            0.0000000000
      9364      3122  TIP3      OH2           -13.4584783614       -0.9450256141       12.7340753451  W2        3251            0.0000000000
      9365      3122  TIP3      H1            -13.7119983614       -0.9258656141       13.6568853451  W2        3251            0.0000000000
      9366      3122  TIP3      H2            -13.7152683614       -1.8164856141       12.4326953451  W2        3251            0.0000000000
      9367      3123  TIP3      OH2           -17.6919783614        1.8060443859       23.1693153451  W2        3252            0.0000000000
      9368      3123  TIP3      H1            -18.3337683614        1.7657743859       23.8783253451  W2        3252            0.0000000000
      9369      3123  TIP3      H2            -17.6547783614        2.7325143859       22.9316153451  W2        3252            0.0000000000
      9370      3124  TIP3      OH2           -17.6950683614        2.0270543859       18.0813153451  W2        3253            0.0000000000
      9371      3124  TIP3      H1            -18.5877783614        1.6866643859       18.0226953451  W2        3253            0.0000000000
      9372      3124  TIP3      H2            -17.2444083614        1.6501443859       17.3256353451  W2        3253            0.0000000000
      9373      3125  TIP3      OH2           -12.1595183614        2.4430843859       16.8983953451  W2        3254            0.0000000000
      9374      3125  TIP3      H1            -12.5684883614        3.2579443859       16.6068753451  W2        3254            0.0000000000
      9375      3125  TIP3      H2            -11.4388983614        2.3030943859       16.2841053451  W2        3254            0.0000000000
      9376      3126  TIP3      OH2           -11.1547483614        1.8891243859       19.7123653451  W2        3256            0.0000000000
      9377      3126  TIP3      H1            -11.3502983614        2.4948043859       18.9974253451  W2        3256            0.0000000000
      9378      3126  TIP3      H2            -10.9734883614        1.0556443859       19.2779953451  W2        3256            0.0000000000
      9379      3127  TIP3      OH2           -19.9419283614        2.1263943859       25.0365153451  W2        3257            0.0000000000
      9380      3127  TIP3      H1            -19.9799883614        2.5265543859       25.9052253451  W2        3257            0.0000000000
      9381      3127  TIP3      H2            -20.4328183614        1.3096343859       25.1268053451  W2        3257            0.0000000000
      9382      3128  TIP3      OH2           -16.5761883614       -0.4993756141       11.8351153451  W2        3258            0.0000000000
      9383      3128  TIP3      H1            -17.0071183614       -0.9443656141       12.5648553451  W2        3258            0.0000000000
      9384      3128  TIP3      H2            -17.2943183614       -0.1277456141       11.3228653451  W2        3258            0.0000000000
      9385      3129  TIP3      OH2           -23.3338483614       -0.7574256141       18.8869853451  W2        3259            0.0000000000
      9386      3129  TIP3      H1            -22.7030783614       -0.7862156141       19.6063753451  W2        3259            0.0000000000
      9387      3129  TIP3      H2            -22.8844183614       -1.1825556141       18.1565753451  W2        3259            0.0000000000
      9388      3130  TIP3      OH2           -22.0596383614       -0.0112256141       14.3110253451  W2        3260            0.0000000000
      9389      3130  TIP3      H1            -21.5854683614        0.5797643859       13.7261153451  W2        3260            0.0000000000
      9390      3130  TIP3      H2            -22.7769983614        0.5190643859       14.6580353451  W2        3260            0.0000000000
      9391      3131  TIP3      OH2           -11.8908283614        3.5272543859       24.3836053451  W2        3261            0.0000000000
      9392      3131  TIP3      H1            -11.5673483614        2.8962243859       23.7406553451  W2        3261            0.0000000000
      9393      3131  TIP3      H2            -12.3308983614        2.9924743859       25.0443453451  W2        3261            0.0000000000
      9394      3132  TIP3      OH2           -15.1135383614       -0.5451956141       19.1677253451  W2        3262            0.0000000000
      9395      3132  TIP3      H1            -16.0244283614       -0.4885156141       19.4563253451  W2        3262            0.0000000000
      9396      3132  TIP3      H2            -14.6082483614       -0.6056456141       19.9784453451  W2        3262            0.0000000000
      9397      3133  TIP3      OH2           -20.2851983614        1.0834343859       17.9944853451  W2        3263            0.0000000000
      9398      3133  TIP3      H1            -21.1743983614        1.1829843859       17.6544453451  W2        3263            0.0000000000
      9399      3133  TIP3      H2            -19.9887083614        0.2417343859       17.6482753451  W2        3263            0.0000000000
      9400      3134  TIP3      OH2           -16.6320183614        1.0836943859       15.6509453451  W2        3264            0.0000000000
      9401      3134  TIP3      H1            -15.7004683614        1.2126943859       15.8292553451  W2        3264            0.0000000000
      9402      3134  TIP3      H2            -16.8469883614        1.7531243859       15.0014153451  W2        3264            0.0000000000
      9403      3135  TIP3      OH2           -10.7083483614       -1.3105656141       22.4319053451  W2        3265            0.0000000000
      9404      3135  TIP3      H1            -11.3851883614       -1.1792556141       23.0958753451  W2        3265            0.0000000000
      9405      3135  TIP3      H2            -11.1938583614       -1.4656156141       21.6216753451  W2        3265            0.0000000000
      9406      3136  TIP3      OH2           -17.9579983614        2.2779143859       13.2175553451  W2        3266            0.0000000000
      9407      3136  TIP3      H1            -18.5004883614        1.8982943859       12.5263153451  W2        3266            0.0000000000
      9408      3136  TIP3      H2            -17.1245083614        2.4723843859       12.7889653451  W2        3266            0.0000000000
      9409      3137  TIP3      OH2           -13.7935683614        2.2421043859       21.0546853451  W2        3269            0.0000000000
      9410      3137  TIP3      H1            -13.2292283614        1.6957643859       20.5076453451  W2        3269            0.0000000000
      9411      3137  TIP3      H2            -13.9412283614        1.7202943859       21.8434453451  W2        3269            0.0000000000
      9412      3138  TIP3      OH2           -18.7915983614       -1.6212856141       17.4731653451  W2        3270            0.0000000000
      9413      3138  TIP3      H1            -19.1086483614       -2.5237556141       17.4377053451  W2        3270            0.0000000000
      9414      3138  TIP3      H2            -18.0101883614       -1.6195456141       16.9203253451  W2        3270            0.0000000000
      9415      3139  TIP3      OH2           -15.1669783614        0.6307143859       23.4687253451  W2        3271            0.0000000000
      9416      3139  TIP3      H1            -16.0024483614        1.0846643859       23.5789653451  W2        3271            0.0000000000
      9417      3139  TIP3      H2            -14.6429183614        0.9065643859       24.2207153451  W2        3271            0.0000000000
      9418      3140  TIP3      OH2           -14.6227183614        6.8434843859       15.1533653451  W2        3272            0.0000000000
      9419      3140  TIP3      H1            -15.3676183614        6.3360143859       14.8311553451  W2        3272            0.0000000000
      9420      3140  TIP3      H2            -14.7569983614        6.8922843859       16.0998453451  W2        3272            0.0000000000
      9421      3141  TIP3      OH2            -7.4728283614        5.9763043859       23.9401253451  W2        3273            0.0000000000
      9422      3141  TIP3      H1             -6.8309483614        6.4329343859       23.3963453451  W2        3273            0.0000000000
      9423      3141  TIP3      H2             -8.3031383614        6.0895443859       23.4775353451  W2        3273            0.0000000000
      9424      3142  TIP3      OH2           -10.7250383614       -0.3425256141       13.3526253451  W2        3274            0.0000000000
      9425      3142  TIP3      H1            -11.6636183614       -0.2309656141       13.2015053451  W2        3274            0.0000000000
      9426      3142  TIP3      H2            -10.4278283614        0.5141643859       13.6591953451  W2        3274            0.0000000000
      9427      3143  TIP3      OH2           -10.0066883614        1.5247443859       15.0133653451  W2        3276            0.0000000000
      9428      3143  TIP3      H1             -9.1147883614        1.3872443859       15.3324853451  W2        3276            0.0000000000
      9429      3143  TIP3      H2             -9.9503283614        2.3153543859       14.4767153451  W2        3276            0.0000000000
      9430      3144  TIP3      OH2           -19.4978883614        6.1384843859       20.9231553451  W2        3277            0.0000000000
      9431      3144  TIP3      H1            -18.7531683614        6.1360543859       20.3218053451  W2        3277            0.0000000000
      9432      3144  TIP3      H2            -19.4202283614        5.3148643859       21.4046653451  W2        3277            0.0000000000
      9433      3145  TIP3      OH2           -12.4973083614        8.3019143859       14.1788253451  W2        3278            0.0000000000
      9434      3145  TIP3      H1            -12.7924683614        9.1287043859       14.5603053451  W2        3278            0.0000000000
      9435      3145  TIP3      H2            -13.2003083614        7.6826043859       14.3749653451  W2        3278            0.0000000000
      9436      3146  TIP3      OH2            -5.1218183614        1.7341543859       14.7080353451  W2        3282            0.0000000000
      9437      3146  TIP3      H1             -5.6761883614        1.3379543859       14.0357853451  W2        3282            0.0000000000
      9438      3146  TIP3      H2             -5.0214583614        2.6446743859       14.4303653451  W2        3282            0.0000000000
      9439      3147  TIP3      OH2            -6.8266483614       10.5201943859       15.1732453451  W2        3284            0.0000000000
      9440      3147  TIP3      H1             -7.1995383614        9.6945743859       15.4823053451  W2        3284            0.0000000000
      9441      3147  TIP3      H2             -6.5492983614       10.3371343859       14.2755853451  W2        3284            0.0000000000
      9442      3148  TIP3      OH2            -9.6662583614        5.3281443859       22.1944353451  W2        3285            0.0000000000
      9443      3148  TIP3      H1            -10.5945683614        5.0963343859       22.1673653451  W2        3285            0.0000000000
      9444      3148  TIP3      H2             -9.2151483614        4.5511243859       21.8643153451  W2        3285            0.0000000000
      9445      3149  TIP3      OH2           -17.1229483614        9.6563043859       18.3273053451  W2        3286            0.0000000000
      9446      3149  TIP3      H1            -16.5957283614       10.4297443859       18.1271853451  W2        3286            0.0000000000
      9447      3149  TIP3      H2            -18.0030983614        9.8812243859       18.0257053451  W2        3286            0.0000000000
      9448      3150  TIP3      OH2           -21.3681783614        4.5187143859       12.9145453451  W2        3287            0.0000000000
      9449      3150  TIP3      H1            -20.7521883614        5.1454343859       13.2940253451  W2        3287            0.0000000000
      9450      3150  TIP3      H2            -22.2299183614        4.8346943859       13.1861953451  W2        3287            0.0000000000
      9451      3151  TIP3      OH2           -15.6957183614        7.3192943859       17.9037353451  W2        3288            0.0000000000
      9452      3151  TIP3      H1            -15.9367183614        8.2447343859       17.9452653451  W2        3288            0.0000000000
      9453      3151  TIP3      H2            -16.4363583614        6.8604243859       18.3001253451  W2        3288            0.0000000000
      9454      3152  TIP3      OH2           -15.1810583614       11.4686543859       24.2188453451  W2        3289            0.0000000000
      9455      3152  TIP3      H1            -14.8185883614       12.3232143859       23.9852853451  W2        3289            0.0000000000
      9456      3152  TIP3      H2            -14.6495383614       11.1768143859       24.9594753451  W2        3289            0.0000000000
      9457      3153  TIP3      OH2           -17.0126383614       12.3410543859       17.4489553451  W2        3290            0.0000000000
      9458      3153  TIP3      H1            -17.9625883614       12.4467943859       17.5002853451  W2        3290            0.0000000000
      9459      3153  TIP3      H2            -16.6608283614       13.1617943859       17.7937053451  W2        3290            0.0000000000
      9460      3154  TIP3      OH2           -11.6369783614        7.5677243859       23.9194053451  W2        3291            0.0000000000
      9461      3154  TIP3      H1            -12.0628483614        7.3398943859       24.7458053451  W2        3291            0.0000000000
      9462      3154  TIP3      H2            -11.0563983614        6.8289043859       23.7369353451  W2        3291            0.0000000000
      9463      3155  TIP3      OH2            -9.4340883614        8.4967743859       12.9933053451  W2        3292            0.0000000000
      9464      3155  TIP3      H1             -9.0807783614        8.1167543859       13.7976553451  W2        3292            0.0000000000
      9465      3155  TIP3      H2            -10.3827383614        8.4032543859       13.0802353451  W2        3292            0.0000000000
      9466      3156  TIP3      OH2            -4.9306483614       12.9760243859       13.1943253451  W2        3294            0.0000000000
      9467      3156  TIP3      H1             -4.1868583614       13.5620743859       13.0544853451  W2        3294            0.0000000000
      9468      3156  TIP3      H2             -5.6248383614       13.5446043859       13.5275653451  W2        3294            0.0000000000
      9469      3157  TIP3      OH2           -20.8559683614       -0.6475556141       25.7961453451  W2        3295            0.0000000000
      9470      3157  TIP3      H1            -21.7487383614       -0.3090156141       25.7285453451  W2        3295            0.0000000000
      9471      3157  TIP3      H2            -20.9546883614       -1.5029456141       26.2142253451  W2        3295            0.0000000000
      9472      3158  TIP3      OH2            -8.5681583614        7.1689743859       15.2200953451  W2        3296            0.0000000000
      9473      3158  TIP3      H1             -8.8453983614        6.4409043859       15.7762053451  W2        3296            0.0000000000
      9474      3158  TIP3      H2             -7.6408583614        7.2881743859       15.4253553451  W2        3296            0.0000000000
      9475      3159  TIP3      OH2           -21.2047683614       11.1568843859       24.2310853451  W2        3297            0.0000000000
      9476      3159  TIP3      H1            -20.9877383614       10.2251243859       24.2000553451  W2        3297            0.0000000000
      9477      3159  TIP3      H2            -20.9584183614       11.4313843859       25.1143653451  W2        3297            0.0000000000
      9478      3160  TIP3      OH2           -15.3433083614        9.6083843859       11.4403053451  W2        3298            0.0000000000
      9479      3160  TIP3      H1            -15.1043283614        8.8601943859       10.8931953451  W2        3298            0.0000000000
      9480      3160  TIP3      H2            -15.6121783614        9.2205543859       12.2730853451  W2        3298            0.0000000000
      9481      3161  TIP3      OH2           -16.4062483614        9.1787643859       13.8965653451  W2        3299            0.0000000000
      9482      3161  TIP3      H1            -16.2594483614        8.6587443859       14.6866553451  W2        3299            0.0000000000
      9483      3161  TIP3      H2            -16.4090783614       10.0855243859       14.2031553451  W2        3299            0.0000000000
      9484      3162  TIP3      OH2           -19.9531383614        6.4310943859       14.4071053451  W2        3300            0.0000000000
      9485      3162  TIP3      H1            -20.6392083614        6.7833443859       14.9740753451  W2        3300            0.0000000000
      9486      3162  TIP3      H2            -19.4303483614        7.1940543859       14.1605353451  W2        3300            0.0000000000
      9487      3163  TIP3      OH2           -12.1216283614       -0.9065256141       24.6860053451  W2        3301            0.0000000000
      9488      3163  TIP3      H1            -11.4228383614       -0.8326556141       25.3359753451  W2        3301            0.0000000000
      9489      3163  TIP3      H2            -12.5024883614       -1.7710256141       24.8402953451  W2        3301            0.0000000000
      9490      3164  TIP3      OH2           -11.3371383614       -1.2543556141       15.7832353451  W2        3302            0.0000000000
      9491      3164  TIP3      H1            -11.1173083614       -0.7828156141       14.9797753451  W2        3302            0.0000000000
      9492      3164  TIP3      H2            -10.7787383614       -0.8600956141       16.4532953451  W2        3302            0.0000000000
      9493      3165  TIP3      OH2           -13.6685283614       10.8761243859       14.6459853451  W2        3303            0.0000000000
      9494      3165  TIP3      H1            -14.4849183614       11.3730943859       14.6984153451  W2        3303            0.0000000000
      9495      3165  TIP3      H2            -13.1388983614       11.3514743859       14.0058653451  W2        3303            0.0000000000
      9496      3166  TIP3      OH2           -14.1371483614        0.4735243859       16.6180753451  W2        3304            0.0000000000
      9497      3166  TIP3      H1            -13.3248883614        0.9778443859       16.6642453451  W2        3304            0.0000000000
      9498      3166  TIP3      H2            -14.3818483614        0.3284943859       17.5320353451  W2        3304            0.0000000000
      9499      3167  TIP3      OH2           -13.6015083614        1.4597943859       25.8027353451  W2        3305            0.0000000000
      9500      3167  TIP3      H1            -13.4824783614        2.0333343859       26.5597753451  W2        3305            0.0000000000
      9501      3167  TIP3      H2            -12.9460483614        0.7717343859       25.9175153451  W2        3305            0.0000000000
      9502      3168  TIP3      OH2           -13.2534783614       -2.4451756141       17.5561853451  W2        3306            0.0000000000
      9503      3168  TIP3      H1            -13.6001283614       -1.8281156141       18.2006153451  W2        3306            0.0000000000
      9504      3168  TIP3      H2            -12.5947883614       -1.9446056141       17.0747353451  W2        3306            0.0000000000
      9505      3169  TIP3      OH2           -16.3302183614       11.9198443859       14.6276753451  W2        3307            0.0000000000
      9506      3169  TIP3      H1            -16.1693483614       12.7195943859       14.1269353451  W2        3307            0.0000000000
      9507      3169  TIP3      H2            -16.5274383614       12.2264443859       15.5127353451  W2        3307            0.0000000000
      9508      3170  TIP3      OH2           -17.5957783614       -1.3822356141       14.2434353451  W2        3308            0.0000000000
      9509      3170  TIP3      H1            -17.6792983614       -0.4939256141       14.5900753451  W2        3308            0.0000000000
      9510      3170  TIP3      H2            -16.7057483614       -1.6475656141       14.4751153451  W2        3308            0.0000000000
      9511      3171  TIP3      OH2            -8.7948283614        3.1169243859       20.7334353451  W2        3310            0.0000000000
      9512      3171  TIP3      H1             -9.5923883614        2.7019443859       20.4049353451  W2        3310            0.0000000000
      9513      3171  TIP3      H2             -8.3497183614        2.4262943859       21.2244853451  W2        3310            0.0000000000
      9514      3172  TIP3      OH2           -19.3372483614        9.0449843859       13.3038853451  W2        3311            0.0000000000
      9515      3172  TIP3      H1            -18.7450983614        9.7444643859       13.5801253451  W2        3311            0.0000000000
      9516      3172  TIP3      H2            -18.8779483614        8.6119343859       12.5843453451  W2        3311            0.0000000000
      9517      3173  TIP3      OH2           -21.0213283614        1.7092843859       12.4198253451  W2        3312            0.0000000000
      9518      3173  TIP3      H1            -21.0660683614        2.6485943859       12.5985253451  W2        3312            0.0000000000
      9519      3173  TIP3      H2            -21.9090083614        1.4737743859       12.1500353451  W2        3312            0.0000000000
      9520      3174  TIP3      OH2            -7.7083683614       12.3731743859       22.3557853451  W2        3313            0.0000000000
      9521      3174  TIP3      H1             -7.8639383614       13.0516143859       21.6987153451  W2        3313            0.0000000000
      9522      3174  TIP3      H2             -6.7757283614       12.4451043859       22.5588453451  W2        3313            0.0000000000
      9523      3175  TIP3      OH2           -20.2131283614       -3.5090556141       21.0929253451  W2        3314            0.0000000000
      9524      3175  TIP3      H1            -20.4421483614       -3.4498056141       20.1654253451  W2        3314            0.0000000000
      9525      3175  TIP3      H2            -20.6557883614       -4.3005056141       21.3993353451  W2        3314            0.0000000000
      9526      3176  TIP3      OH2           -21.2827983614       10.4316543859       17.2535053451  W2        3315            0.0000000000
      9527      3176  TIP3      H1            -22.1149383614       10.9039243859       17.2806453451  W2        3315            0.0000000000
      9528      3176  TIP3      H2            -20.7369683614       10.9414143859       16.6548153451  W2        3315            0.0000000000
      9529      3177  TIP3      OH2           -13.3051283614       11.4715243859       11.5789053451  W2        3318            0.0000000000
      9530      3177  TIP3      H1            -13.9490283614       10.8403843859       11.9002753451  W2        3318            0.0000000000
      9531      3177  TIP3      H2            -12.5432983614       10.9403243859       11.3472553451  W2        3318            0.0000000000
      9532      3178  TIP3      OH2            -8.7008383614       11.2885143859       11.8127053451  W2        3320            0.0000000000
      9533      3178  TIP3      H1             -8.4177983614       10.4940343859       12.2653953451  W2        3320            0.0000000000
      9534      3178  TIP3      H2             -7.9610483614       11.5216143859       11.2518153451  W2        3320            0.0000000000
      9535      3179  TIP3      OH2           -17.7461083614        7.1980043859       11.6701953451  W2        3322            0.0000000000
      9536      3179  TIP3      H1            -17.6816983614        6.4039643859       12.2008353451  W2        3322            0.0000000000
      9537      3179  TIP3      H2            -17.0931883614        7.0792843859       10.9803953451  W2        3322            0.0000000000
      9538      3180  TIP3      OH2           -12.3937683614        8.2451743859       11.4059953451  W2        3324            0.0000000000
      9539      3180  TIP3      H1            -12.6623583614        8.4253843859       12.3068853451  W2        3324            0.0000000000
      9540      3180  TIP3      H2            -12.6002083614        7.3197943859       11.2745753451  W2        3324            0.0000000000
      9541      3181  TIP3      OH2           -16.5967283614        5.1706243859       13.9759953451  W2        3327            0.0000000000
      9542      3181  TIP3      H1            -17.0565283614        4.6864543859       14.6618453451  W2        3327            0.0000000000
      9543      3181  TIP3      H2            -16.3418583614        4.5021643859       13.3400453451  W2        3327            0.0000000000
      9544      3182  TIP3      OH2           -15.5256883614        3.4138043859       12.2383153451  W2        3329            0.0000000000
      9545      3182  TIP3      H1            -15.7061883614        3.2589243859       11.3111453451  W2        3329            0.0000000000
      9546      3182  TIP3      H2            -14.5756383614        3.5216743859       12.2831053451  W2        3329            0.0000000000
      9547      3183  TIP3      OH2            -6.1358583614        5.7682243859       11.6841253451  W2        3331            0.0000000000
      9548      3183  TIP3      H1             -6.4093783614        5.3437743859       10.8709553451  W2        3331            0.0000000000
      9549      3183  TIP3      H2             -6.0964483614        6.6996743859       11.4671653451  W2        3331            0.0000000000
      9550      3184  TIP3      OH2           -16.5558583614       -1.2120056141       24.9070053451  W2        3333            0.0000000000
      9551      3184  TIP3      H1            -16.0201083614       -0.7603356141       24.2549353451  W2        3333            0.0000000000
      9552      3184  TIP3      H2            -17.4078983614       -1.3200256141       24.4844153451  W2        3333            0.0000000000
      9553      3185  TIP3      OH2           -14.9740183614        4.2276143859       25.1465253451  W2        3334            0.0000000000
      9554      3185  TIP3      H1            -14.2235383614        4.0713643859       24.5733053451  W2        3334            0.0000000000
      9555      3185  TIP3      H2            -15.3131883614        5.0792743859       24.8710753451  W2        3334            0.0000000000
      9556      3186  TIP3      OH2           -15.7503083614       -3.7554356141       25.3383653451  W2        3338            0.0000000000
      9557      3186  TIP3      H1            -15.8483483614       -2.8091156141       25.2329853451  W2        3338            0.0000000000
      9558      3186  TIP3      H2            -16.4926883614       -4.1280556141       24.8627153451  W2        3338            0.0000000000
      9559      3187  TIP3      OH2           -15.6285183614       14.1041743859       13.2396753451  W2        3345            0.0000000000
      9560      3187  TIP3      H1            -14.6954483614       14.2620443859       13.3835153451  W2        3345            0.0000000000
      9561      3187  TIP3      H2            -15.8926383614       14.7794743859       12.6148253451  W2        3345            0.0000000000
      9562      3188  TIP3      OH2           -22.0600283614        8.7405543859       12.7224853451  W2        3346            0.0000000000
      9563      3188  TIP3      H1            -21.1461083614        8.8194443859       12.9958753451  W2        3346            0.0000000000
      9564      3188  TIP3      H2            -22.0527183614        8.0535143859       12.0560453451  W2        3346            0.0000000000
      9565      3189  TIP3      OH2           -23.4109683614       14.1334043859       17.7998753451  W2        3347            0.0000000000
      9566      3189  TIP3      H1            -24.0582583614       13.6715743859       17.2669953451  W2        3347            0.0000000000
      9567      3189  TIP3      H2            -23.0565083614       13.4617343859       18.3824953451  W2        3347            0.0000000000
      9568      3190  TIP3      OH2           -22.5410483614       12.2141043859       19.6044953451  W2        3348            0.0000000000
      9569      3190  TIP3      H1            -22.8753683614       11.3338343859       19.7765153451  W2        3348            0.0000000000
      9570      3190  TIP3      H2            -22.3188083614       12.5596043859       20.4690553451  W2        3348            0.0000000000
      9571      3191  TIP3      OH2            -4.9925683614       13.0237443859       22.5849753451  W2        3349            0.0000000000
      9572      3191  TIP3      H1             -5.0138983614       13.2085843859       23.5239153451  W2        3349            0.0000000000
      9573      3191  TIP3      H2             -4.3019483614       13.5921443859       22.2441153451  W2        3349            0.0000000000
      9574      3192  TIP3      OH2            -5.4292783614       12.5908543859       25.5068853451  W2        3350            0.0000000000
      9575      3192  TIP3      H1             -5.9164083614       11.8552643859       25.1356253451  W2        3350            0.0000000000
      9576      3192  TIP3      H2             -4.8800083614       12.1972443859       26.1848253451  W2        3350            0.0000000000
      9577      3193  TIP3      OH2            -5.6775783614        6.6370343859       15.6591653451  W2        3352            0.0000000000
      9578      3193  TIP3      H1             -4.8274383614        7.0581243859       15.7863253451  W2        3352            0.0000000000
      9579      3193  TIP3      H2             -5.6720683614        5.8970443859       16.2663053451  W2        3352            0.0000000000
      9580      3194  TIP3      OH2            -5.2830183614        4.6907743859       17.4827353451  W2        3353            0.0000000000
      9581      3194  TIP3      H1             -6.0095583614        4.2110343859       17.8804953451  W2        3353            0.0000000000
      9582      3194  TIP3      H2             -4.7016883614        4.8962443859       18.2148953451  W2        3353            0.0000000000
      9583      3195  TIP3      OH2            -5.5238983614        7.4755243859       22.4304953451  W2        3354            0.0000000000
      9584      3195  TIP3      H1             -4.6904783614        7.0975243859       22.1498553451  W2        3354            0.0000000000
      9585      3195  TIP3      H2             -5.4118683614        8.4186443859       22.3114053451  W2        3354            0.0000000000
      9586      3196  TIP3      OH2            -7.0376683614       10.3532743859       24.7373353451  W2        3355            0.0000000000
      9587      3196  TIP3      H1             -7.6851383614       10.6784243859       25.3628553451  W2        3355            0.0000000000
      9588      3196  TIP3      H2             -7.5552683614        9.9130443859       24.0631653451  W2        3355            0.0000000000
      9589      3197  TIP3      OH2            -5.0147083614        4.5916243859       13.8738653451  W2        3356            0.0000000000
      9590      3197  TIP3      H1             -5.5365983614        4.9480343859       13.1549553451  W2        3356            0.0000000000
      9591      3197  TIP3      H2             -5.0477883614        5.2664043859       14.5519553451  W2        3356            0.0000000000
      9592      3198  TIP3      OH2            -6.6658083614        1.8311843859       12.4245753451  W2        3357            0.0000000000
      9593      3198  TIP3      H1             -6.5693683614        2.4978843859       11.7445453451  W2        3357            0.0000000000
      9594      3198  TIP3      H2             -6.8058483614        1.0158143859       11.9431253451  W2        3357            0.0000000000
      9595      3199  TIP3      OH2            -7.4963383614        3.2114243859       18.0456053451  W2        3358            0.0000000000
      9596      3199  TIP3      H1             -7.6464583614        2.2662843859       18.0253853451  W2        3358            0.0000000000
      9597      3199  TIP3      H2             -7.8498883614        3.4925643859       18.8895153451  W2        3358            0.0000000000
      9598      3200  TIP3      OH2           -22.4610983614        5.2896443859       22.0559853451  W2        3359            0.0000000000
      9599      3200  TIP3      H1            -22.2768083614        5.2078143859       21.1202753451  W2        3359            0.0000000000
      9600      3200  TIP3      H2            -21.6118083614        5.1653443859       22.4796253451  W2        3359            0.0000000000
      9601      3201  TIP3      OH2            -7.4184283614       -0.7608356141       11.5421253451  W2        3362            0.0000000000
      9602      3201  TIP3      H1             -6.8078483614       -1.1321556141       12.1789453451  W2        3362            0.0000000000
      9603      3201  TIP3      H2             -8.2552783614       -1.1821456141       11.7381253451  W2        3362            0.0000000000
      9604      3202  TIP3      OH2            -7.7858583614        0.7940043859       16.5081153451  W2        3363            0.0000000000
      9605      3202  TIP3      H1             -7.5061483614       -0.1129556141       16.6322853451  W2        3363            0.0000000000
      9606      3202  TIP3      H2             -7.0266883614        1.2281543859       16.1190353451  W2        3363            0.0000000000
      9607      3203  TIP3      OH2            -7.1740283614        1.3757443859       21.9440053451  W2        3364            0.0000000000
      9608      3203  TIP3      H1             -6.2412283614        1.5877343859       21.9096053451  W2        3364            0.0000000000
      9609      3203  TIP3      H2             -7.4092783614        1.4769543859       22.8663053451  W2        3364            0.0000000000
      9610      3204  TIP3      OH2            -7.1448383614        2.1122743859       24.7199453451  W2        3365            0.0000000000
      9611      3204  TIP3      H1             -7.9877083614        2.3803143859       25.0859253451  W2        3365            0.0000000000
      9612      3204  TIP3      H2             -6.7024083614        2.9344643859       24.5090553451  W2        3365            0.0000000000
      9613      3205  TIP3      OH2            -7.1723783614       -1.9430656141       16.5563153451  W2        3368            0.0000000000
      9614      3205  TIP3      H1             -6.9898783614       -2.3919156141       17.3818153451  W2        3368            0.0000000000
      9615      3205  TIP3      H2             -7.7720883614       -2.5276256141       16.0927753451  W2        3368            0.0000000000
      9616      3206  TIP3      OH2           -21.6423683614       -1.1276956141       21.0881553451  W2        3369            0.0000000000
      9617      3206  TIP3      H1            -21.1972083614       -1.9194456141       21.3901253451  W2        3369            0.0000000000
      9618      3206  TIP3      H2            -21.1760683614       -0.4111756141       21.5187153451  W2        3369            0.0000000000
      9619      3207  TIP3      OH2           -23.3383383614        1.8716043859       22.1571753451  W2        3370            0.0000000000
      9620      3207  TIP3      H1            -22.8463583614        1.6506543859       21.3663753451  W2        3370            0.0000000000
      9621      3207  TIP3      H2            -22.9762483614        2.7119443859       22.4381253451  W2        3370            0.0000000000
      9622      3208  TIP3      OH2            -5.3057583614       -1.8752556141       13.0843453451  W2        3372            0.0000000000
      9623      3208  TIP3      H1             -4.8934983614       -2.5966856141       12.6091453451  W2        3372            0.0000000000
      9624      3208  TIP3      H2             -4.6241083614       -1.2057956141       13.1427753451  W2        3372            0.0000000000
      9625      3209  TIP3      OH2           -23.0246883614       -1.8704856141       16.2114153451  W2        3373            0.0000000000
      9626      3209  TIP3      H1            -23.9498483614       -1.6618256141       16.0819653451  W2        3373            0.0000000000
      9627      3209  TIP3      H2            -22.5706983614       -1.3864056141       15.5216453451  W2        3373            0.0000000000
      9628      3210  TIP3      OH2            -8.2539683614       13.1136843859       18.1571553451  W2        3374            0.0000000000
      9629      3210  TIP3      H1             -7.6016783614       12.7658943859       17.5490653451  W2        3374            0.0000000000
      9630      3210  TIP3      H2             -7.7435883614       13.6020043859       18.8031253451  W2        3374            0.0000000000
      9631      3211  TIP3      OH2           -23.0611483614       -3.1325856141       24.5556653451  W2        3375            0.0000000000
      9632      3211  TIP3      H1            -23.7260983614       -3.3785556141       25.1987553451  W2        3375            0.0000000000
      9633      3211  TIP3      H2            -23.5040183614       -2.5105456141       23.9784653451  W2        3375            0.0000000000
      9634      3212  TIP3      OH2           -17.9149283614       11.0169443859       24.9586453451  W2        3377            0.0000000000
      9635      3212  TIP3      H1            -18.3398183614       11.8267943859       24.6761053451  W2        3377            0.0000000000
      9636      3212  TIP3      H2            -17.0106483614       11.1023543859       24.6566253451  W2        3377            0.0000000000
      9637      3213  TIP3      OH2           -20.5132583614       14.2733343859       25.0061753451  W2        3381            0.0000000000
      9638      3213  TIP3      H1            -21.2336183614       14.7134343859       24.5549453451  W2        3381            0.0000000000
      9639      3213  TIP3      H2            -20.8788583614       14.0228043859       25.8545753451  W2        3381            0.0000000000
      9640      3214  TIP3      OH2           -18.0459983614       13.8737243859       24.0358953451  W2        3382            0.0000000000
      9641      3214  TIP3      H1            -18.9107783614       13.9455743859       24.4399053451  W2        3382            0.0000000000
      9642      3214  TIP3      H2            -18.1010983614       14.4204543859       23.2521453451  W2        3382            0.0000000000
      9643      3215  TIP3      OH2           -13.3354383614       13.7616143859       23.2114953451  W2        3383            0.0000000000
      9644      3215  TIP3      H1            -13.7920383614       14.2905843859       22.5573353451  W2        3383            0.0000000000
      9645      3215  TIP3      H2            -13.1726383614       14.3647543859       23.9367253451  W2        3383            0.0000000000
      9646      3216  TIP3      OH2           -11.0078083614       12.6395743859       24.1565253451  W2        3384            0.0000000000
      9647      3216  TIP3      H1            -11.9124383614       12.8045943859       23.8907353451  W2        3384            0.0000000000
      9648      3216  TIP3      H2            -10.5789483614       13.4927943859       24.0908653451  W2        3384            0.0000000000
      9649      3217  TIP3      OH2            -8.4036183614       14.2094843859       24.4513053451  W2        3385            0.0000000000
      9650      3217  TIP3      H1             -8.5854183614       15.1253743859       24.2407953451  W2        3385            0.0000000000
      9651      3217  TIP3      H2             -8.2268383614       13.7991943859       23.6047653451  W2        3385            0.0000000000
      9652      3218  TIP3      OH2           -21.0984483614       12.8965843859       21.9163553451  W2        3386            0.0000000000
      9653      3218  TIP3      H1            -21.1168483614       12.4710943859       22.7735853451  W2        3386            0.0000000000
      9654      3218  TIP3      H2            -20.2936583614       12.5780843859       21.5075753451  W2        3386            0.0000000000
      9655      3219  TIP3      OH2           -18.9571383614       11.6064543859       20.5713453451  W2        3387            0.0000000000
      9656      3219  TIP3      H1            -19.1760683614       10.6901943859       20.7409453451  W2        3387            0.0000000000
      9657      3219  TIP3      H2            -18.1329183614       11.7464943859       21.0374853451  W2        3387            0.0000000000
      9658      3220  TIP3      OH2           -16.4198883614       12.0763843859       21.4201453451  W2        3388            0.0000000000
      9659      3220  TIP3      H1            -16.2073183614       11.1882843859       21.1332353451  W2        3388            0.0000000000
      9660      3220  TIP3      H2            -16.3553783614       12.0421543859       22.3745453451  W2        3388            0.0000000000
      9661      3221  TIP3      OH2           -12.9115183614       -2.2595556141       20.5644753451  W2        3389            0.0000000000
      9662      3221  TIP3      H1            -13.5858383614       -2.8889956141       20.8200553451  W2        3389            0.0000000000
      9663      3221  TIP3      H2            -12.3475983614       -2.7436656141       19.9612653451  W2        3389            0.0000000000
      9664      3222  TIP3      OH2            -7.7687983614       -4.1521556141       20.6771853451  W2        3390            0.0000000000
      9665      3222  TIP3      H1             -7.1650383614       -3.6046156141       20.1752853451  W2        3390            0.0000000000
      9666      3222  TIP3      H2             -8.6385983614       -3.8331156141       20.4365953451  W2        3390            0.0000000000
      9667      3223  TIP3      OH2            -6.0417583614       -3.0132856141       19.0102753451  W2        3391            0.0000000000
      9668      3223  TIP3      H1             -5.4300083614       -3.5277156141       18.4836353451  W2        3391            0.0000000000
      9669      3223  TIP3      H2             -5.6594183614       -2.1360756141       19.0337153451  W2        3391            0.0000000000
      9670      3224  TIP3      OH2           -20.5847683614       -3.6255256141       18.3864653451  W2        3392            0.0000000000
      9671      3224  TIP3      H1            -21.3617883614       -3.8600356141       17.8790553451  W2        3392            0.0000000000
      9672      3224  TIP3      H2            -20.0544083614       -4.4223156141       18.3952653451  W2        3392            0.0000000000
      9673      3225  TIP3      OH2           -21.7484283614       -3.8277156141       14.1900753451  W2        3393            0.0000000000
      9674      3225  TIP3      H1            -21.3093583614       -3.2166656141       13.5984253451  W2        3393            0.0000000000
      9675      3225  TIP3      H2            -22.3821883614       -3.2893056141       14.6640753451  W2        3393            0.0000000000
      9676      3226  TIP3      OH2           -16.0055083614       -3.6988156141       18.1997753451  W2        3394            0.0000000000
      9677      3226  TIP3      H1            -15.1311683614       -3.3103856141       18.1702053451  W2        3394            0.0000000000
      9678      3226  TIP3      H2            -16.1414283614       -3.9140356141       19.1224953451  W2        3394            0.0000000000
      9679      3227  TIP3      OH2           -10.4486683614       -3.6688356141       19.8489453451  W2        3395            0.0000000000
      9680      3227  TIP3      H1            -10.3725083614       -3.5736756141       18.8995453451  W2        3395            0.0000000000
      9681      3227  TIP3      H2            -10.7237483614       -4.5765456141       19.9778553451  W2        3395            0.0000000000
      9682      3228  TIP3      OH2            -9.0954083614       -3.6430556141       15.5414453451  W2        3396            0.0000000000
      9683      3228  TIP3      H1             -9.7982983614       -3.0281356141       15.3315853451  W2        3396            0.0000000000
      9684      3228  TIP3      H2             -9.5402683614       -4.4803856141       15.6725353451  W2        3396            0.0000000000
      9685      3229  TIP3      OH2           -21.8474783614       12.1205043859       15.0875853451  W2        3397            0.0000000000
      9686      3229  TIP3      H1            -22.5324883614       12.0823943859       14.4200953451  W2        3397            0.0000000000
      9687      3229  TIP3      H2            -21.8437583614       13.0332643859       15.3757953451  W2        3397            0.0000000000
      9688      3230  TIP3      OH2           -19.8875183614       -1.9115656141       12.6324853451  W2        3398            0.0000000000
      9689      3230  TIP3      H1            -19.3961783614       -2.5413256141       12.1050353451  W2        3398            0.0000000000
      9690      3230  TIP3      H2            -19.2638883614       -1.6156256141       13.2956053451  W2        3398            0.0000000000
      9691      3231  TIP3      OH2           -14.8615083614       -1.6184156141       15.0895353451  W2        3399            0.0000000000
      9692      3231  TIP3      H1            -14.6833783614       -2.2650956141       15.7723953451  W2        3399            0.0000000000
      9693      3231  TIP3      H2            -14.9148883614       -0.7846456141       15.5566453451  W2        3399            0.0000000000
      9694      3232  TIP3      OH2           -12.9831283614       13.3299943859       13.4852053451  W2        3400            0.0000000000
      9695      3232  TIP3      H1            -12.1171083614       13.6967343859       13.3070253451  W2        3400            0.0000000000
      9696      3232  TIP3      H2            -13.2298483614       12.8907943859       12.6712853451  W2        3400            0.0000000000
      9697      3233  TIP3      OH2            -6.2741683614       12.8930243859       16.1643153451  W2        3401            0.0000000000
      9698      3233  TIP3      H1             -6.4684583614       12.1452343859       15.5992753451  W2        3401            0.0000000000
      9699      3233  TIP3      H2             -6.3131583614       13.6510343859       15.5811053451  W2        3401            0.0000000000
      9700      3234  TIP3      OH2           -20.0293583614       13.0405843859       12.1127953451  W2        3404            0.0000000000
      9701      3234  TIP3      H1            -20.2968983614       13.3268743859       12.9861053451  W2        3404            0.0000000000
      9702      3234  TIP3      H2            -19.2580983614       12.4945043859       12.2650453451  W2        3404            0.0000000000
      9703      3235  TIP3      OH2             7.3494916386        5.5307043859       18.3452153451  W2        3407            0.0000000000
      9704      3235  TIP3      H1              7.4386016386        6.4745243859       18.2129253451  W2        3407            0.0000000000
      9705      3235  TIP3      H2              6.7112516386        5.2553443859       17.6871553451  W2        3407            0.0000000000
      9706      3236  TIP3      OH2             6.2826216386        4.7857743859       21.7640353451  W2        3408            0.0000000000
      9707      3236  TIP3      H1              6.2443716386        4.1394043859       22.4689953451  W2        3408            0.0000000000
      9708      3236  TIP3      H2              5.9602716386        4.3192143859       20.9929053451  W2        3408            0.0000000000
      9709      3237  TIP3      OH2            -1.3488783614        4.3999843859       23.3570253451  W2        3409            0.0000000000
      9710      3237  TIP3      H1             -1.3076683614        3.7743143859       24.0802653451  W2        3409            0.0000000000
      9711      3237  TIP3      H2             -0.6461083614        5.0238443859       23.5390653451  W2        3409            0.0000000000
      9712      3238  TIP3      OH2             9.9886416386        7.7248143859       20.0655453451  W2        3410            0.0000000000
      9713      3238  TIP3      H1              9.5479116386        7.0044143859       20.5161053451  W2        3410            0.0000000000
      9714      3238  TIP3      H2              9.9756116386        8.4455343859       20.6953153451  W2        3410            0.0000000000
      9715      3239  TIP3      OH2            -0.4255683614        8.8498743859       21.8919353451  W2        3411            0.0000000000
      9716      3239  TIP3      H1             -0.7950483614        8.0479243859       21.5223653451  W2        3411            0.0000000000
      9717      3239  TIP3      H2              0.5155416386        8.6813643859       21.9382753451  W2        3411            0.0000000000
      9718      3240  TIP3      OH2            -3.8155183614        2.5101343859       17.2848153451  W2        3412            0.0000000000
      9719      3240  TIP3      H1             -4.2631783614        3.3560043859       17.2664653451  W2        3412            0.0000000000
      9720      3240  TIP3      H2             -4.3763983614        1.9305543859       16.7693253451  W2        3412            0.0000000000
      9721      3241  TIP3      OH2            -3.1049083614        4.6720943859       19.4106153451  W2        3413            0.0000000000
      9722      3241  TIP3      H1             -2.8915583614        3.9022543859       19.9379153451  W2        3413            0.0000000000
      9723      3241  TIP3      H2             -2.3671483614        4.7617643859       18.8073753451  W2        3413            0.0000000000
      9724      3242  TIP3      OH2             7.1001916386       12.8289843859       20.2775853451  W2        3414            0.0000000000
      9725      3242  TIP3      H1              7.7198316386       12.1524543859       20.0045053451  W2        3414            0.0000000000
      9726      3242  TIP3      H2              6.8919316386       12.6110643859       21.1860753451  W2        3414            0.0000000000
      9727      3243  TIP3      OH2             4.6720616386        7.2179143859       22.1701353451  W2        3415            0.0000000000
      9728      3243  TIP3      H1              4.9758516386        6.5320543859       21.5755453451  W2        3415            0.0000000000
      9729      3243  TIP3      H2              5.3934616386        7.3367843859       22.7879353451  W2        3415            0.0000000000
      9730      3244  TIP3      OH2            13.3350416386       -1.1805556141       23.0307553451  W2        3416            0.0000000000
      9731      3244  TIP3      H1             13.3842616386       -0.5704356141       23.7666653451  W2        3416            0.0000000000
      9732      3244  TIP3      H2             13.7605516386       -0.7194656141       22.3078653451  W2        3416            0.0000000000
      9733      3245  TIP3      OH2             7.8127616386        1.6121543859       22.4976153451  W2        3417            0.0000000000
      9734      3245  TIP3      H1              7.9553516386        0.6658543859       22.5177753451  W2        3417            0.0000000000
      9735      3245  TIP3      H2              7.7066616386        1.8191343859       21.5691053451  W2        3417            0.0000000000
      9736      3246  TIP3      OH2             0.9675916386       -0.2862056141       19.7700953451  W2        3418            0.0000000000
      9737      3246  TIP3      H1              1.0107016386        0.5736443859       19.3517253451  W2        3418            0.0000000000
      9738      3246  TIP3      H2              0.5100016386       -0.8387356141       19.1364153451  W2        3418            0.0000000000
      9739      3247  TIP3      OH2             8.6898616386       -0.1556456141       18.1709253451  W2        3419            0.0000000000
      9740      3247  TIP3      H1              9.3362916386       -0.4843256141       18.7956853451  W2        3419            0.0000000000
      9741      3247  TIP3      H2              9.1998016386        0.3622543859       17.5480653451  W2        3419            0.0000000000
      9742      3248  TIP3      OH2            -2.4122583614        2.1103743859       20.5322353451  W2        3420            0.0000000000
      9743      3248  TIP3      H1             -1.7585983614        1.5605443859       20.9642453451  W2        3420            0.0000000000
      9744      3248  TIP3      H2             -2.3883283614        1.8362743859       19.6154353451  W2        3420            0.0000000000
      9745      3249  TIP3      OH2             2.7441916386        3.6605043859       19.7473853451  W2        3421            0.0000000000
      9746      3249  TIP3      H1              3.3602916386        3.1340443859       20.2567853451  W2        3421            0.0000000000
      9747      3249  TIP3      H2              2.1580716386        3.0203743859       19.3437453451  W2        3421            0.0000000000
      9748      3250  TIP3      OH2            13.7265016386        0.2973643859       25.2667353451  W2        3422            0.0000000000
      9749      3250  TIP3      H1             13.0379616386        0.9554343859       25.1713953451  W2        3422            0.0000000000
      9750      3250  TIP3      H2             13.7419616386        0.1001543859       26.2032753451  W2        3422            0.0000000000
      9751      3251  TIP3      OH2            -0.2222183614       -1.3683656141       23.8441753451  W2        3423            0.0000000000
      9752      3251  TIP3      H1             -0.4410483614       -0.8383056141       23.0777753451  W2        3423            0.0000000000
      9753      3251  TIP3      H2             -0.8901283614       -1.1418156141       24.4913153451  W2        3423            0.0000000000
      9754      3252  TIP3      OH2             7.1467616386        8.1317443859       17.3880853451  W2        3424            0.0000000000
      9755      3252  TIP3      H1              6.8512716386        7.8089743859       16.5367753451  W2        3424            0.0000000000
      9756      3252  TIP3      H2              6.8225416386        9.0314143859       17.4293453451  W2        3424            0.0000000000
      9757      3253  TIP3      OH2             2.3469216386        6.3072043859       24.1315453451  W2        3425            0.0000000000
      9758      3253  TIP3      H1              1.6068316386        6.9053543859       24.2350653451  W2        3425            0.0000000000
      9759      3253  TIP3      H2              3.0608716386        6.8611643859       23.8159053451  W2        3425            0.0000000000
      9760      3254  TIP3      OH2            10.4537016386       -0.8647156141       20.1515153451  W2        3426            0.0000000000
      9761      3254  TIP3      H1             10.2385016386       -1.6303756141       20.6841153451  W2        3426            0.0000000000
      9762      3254  TIP3      H2             11.1094416386       -0.3922556141       20.6643653451  W2        3426            0.0000000000
      9763      3255  TIP3      OH2            -0.6284883614        0.5238143859       21.7963953451  W2        3427            0.0000000000
      9764      3255  TIP3      H1             -0.0148583614        1.1565743859       22.1696353451  W2        3427            0.0000000000
      9765      3255  TIP3      H2             -0.1164183614        0.0513143859       21.1400853451  W2        3427            0.0000000000
      9766      3256  TIP3      OH2             0.7543516386        8.2715043859       24.9186953451  W2        3428            0.0000000000
      9767      3256  TIP3      H1              0.7491116386        9.1508543859       24.5406253451  W2        3428            0.0000000000
      9768      3256  TIP3      H2             -0.0992383614        8.1879143859       25.3436853451  W2        3428            0.0000000000
      9769      3257  TIP3      OH2            -3.1245583614        7.9422943859       15.7006253451  W2        3429            0.0000000000
      9770      3257  TIP3      H1             -3.3964683614        8.1713943859       14.8119153451  W2        3429            0.0000000000
      9771      3257  TIP3      H2             -3.0789883614        8.7801743859       16.1611553451  W2        3429            0.0000000000
      9772      3258  TIP3      OH2            10.5004116386        9.5638843859       22.4134753451  W2        3430            0.0000000000
      9773      3258  TIP3      H1              9.5587816386        9.6222743859       22.5751653451  W2        3430            0.0000000000
      9774      3258  TIP3      H2             10.7770216386       10.4699343859       22.2764453451  W2        3430            0.0000000000
      9775      3259  TIP3      OH2            10.8011116386       -2.1495856141       23.8308653451  W2        3431            0.0000000000
      9776      3259  TIP3      H1             10.0650316386       -1.5388756141       23.7929953451  W2        3431            0.0000000000
      9777      3259  TIP3      H2             11.4845116386       -1.7346856141       23.3045053451  W2        3431            0.0000000000
      9778      3260  TIP3      OH2             3.8042516386       -4.0628556141       21.2966653451  W2        3432            0.0000000000
      9779      3260  TIP3      H1              3.6866716386       -5.0112556141       21.2424953451  W2        3432            0.0000000000
      9780      3260  TIP3      H2              2.9492616386       -3.7302456141       21.5697753451  W2        3432            0.0000000000
      9781      3261  TIP3      OH2             8.7525316386       11.3452343859       19.0386353451  W2        3433            0.0000000000
      9782      3261  TIP3      H1              9.1777616386       10.6380243859       18.5535953451  W2        3433            0.0000000000
      9783      3261  TIP3      H2              9.0695316386       12.1465043859       18.6218553451  W2        3433            0.0000000000
      9784      3262  TIP3      OH2             9.9121816386        9.2460843859       17.5472953451  W2        3434            0.0000000000
      9785      3262  TIP3      H1              9.6546616386        8.5560943859       16.9358853451  W2        3434            0.0000000000
      9786      3262  TIP3      H2              9.9832616386        8.8032043859       18.3928853451  W2        3434            0.0000000000
      9787      3263  TIP3      OH2            11.5982016386        7.8127543859       26.0246453451  W2        3435            0.0000000000
      9788      3263  TIP3      H1             11.7378316386        7.2210043859       25.2853453451  W2        3435            0.0000000000
      9789      3263  TIP3      H2             11.7654816386        8.6853443859       25.6685253451  W2        3435            0.0000000000
      9790      3264  TIP3      OH2             6.0707416386        4.7747043859       15.7972453451  W2        3436            0.0000000000
      9791      3264  TIP3      H1              5.3592916386        5.3096743859       15.4452953451  W2        3436            0.0000000000
      9792      3264  TIP3      H2              6.7617016386        4.8299143859       15.1371353451  W2        3436            0.0000000000
      9793      3265  TIP3      OH2             6.1246616386        3.2321343859       12.8357453451  W2        3437            0.0000000000
      9794      3265  TIP3      H1              6.8256516386        3.2548243859       13.4871453451  W2        3437            0.0000000000
      9795      3265  TIP3      H2              6.4269516386        2.6041043859       12.1796753451  W2        3437            0.0000000000
      9796      3266  TIP3      OH2            13.4401316386        4.1525543859       24.0906853451  W2        3438            0.0000000000
      9797      3266  TIP3      H1             12.7875416386        4.8471143859       24.1797753451  W2        3438            0.0000000000
      9798      3266  TIP3      H2             13.9051616386        4.3626443859       23.2808453451  W2        3438            0.0000000000
      9799      3267  TIP3      OH2             9.4765116386        4.9840343859       16.7488353451  W2        3439            0.0000000000
      9800      3267  TIP3      H1              8.7446116386        5.2124043859       17.3218953451  W2        3439            0.0000000000
      9801      3267  TIP3      H2              9.9237316386        4.2703043859       17.2035853451  W2        3439            0.0000000000
      9802      3268  TIP3      OH2             9.3738616386        3.1582943859       25.8165353451  W2        3440            0.0000000000
      9803      3268  TIP3      H1              9.4537716386        3.9217343859       26.3883853451  W2        3440            0.0000000000
      9804      3268  TIP3      H2              8.7726316386        3.4375343859       25.1260453451  W2        3440            0.0000000000
      9805      3269  TIP3      OH2             1.1218816386        5.6146543859       18.6313353451  W2        3441            0.0000000000
      9806      3269  TIP3      H1              0.7914016386        5.2439943859       17.8130353451  W2        3441            0.0000000000
      9807      3269  TIP3      H2              1.7102916386        4.9440543859       18.9781653451  W2        3441            0.0000000000
      9808      3270  TIP3      OH2             2.4886316386        9.0427143859       21.3125553451  W2        3442            0.0000000000
      9809      3270  TIP3      H1              2.3937616386        8.4640243859       20.5560153451  W2        3442            0.0000000000
      9810      3270  TIP3      H2              3.2179916386        8.6712843859       21.8088353451  W2        3442            0.0000000000
      9811      3271  TIP3      OH2             1.4884316386        4.3832143859       22.2648353451  W2        3443            0.0000000000
      9812      3271  TIP3      H1              2.0536816386        4.5046343859       21.5019553451  W2        3443            0.0000000000
      9813      3271  TIP3      H2              1.8073216386        5.0207143859       22.9036853451  W2        3443            0.0000000000
      9814      3272  TIP3      OH2             7.7976516386        9.8864043859       22.9988853451  W2        3444            0.0000000000
      9815      3272  TIP3      H1              7.5573116386       10.5487143859       23.6468053451  W2        3444            0.0000000000
      9816      3272  TIP3      H2              7.5994716386        9.0519243859       23.4238453451  W2        3444            0.0000000000
      9817      3273  TIP3      OH2             8.3474616386        4.1463243859       14.4339553451  W2        3446            0.0000000000
      9818      3273  TIP3      H1              8.9270116386        4.2963543859       15.1808453451  W2        3446            0.0000000000
      9819      3273  TIP3      H2              8.7614616386        4.6170643859       13.7105953451  W2        3446            0.0000000000
      9820      3274  TIP3      OH2             6.0739516386       10.8831743859       17.8692653451  W2        3448            0.0000000000
      9821      3274  TIP3      H1              6.5477116386       11.1788043859       18.6466853451  W2        3448            0.0000000000
      9822      3274  TIP3      H2              5.5108816386       11.6213343859       17.6362253451  W2        3448            0.0000000000
      9823      3275  TIP3      OH2            12.0463016386       -4.1036356141       14.2469253451  W2        3450            0.0000000000
      9824      3275  TIP3      H1             11.1463716386       -3.9647356141       14.5419853451  W2        3450            0.0000000000
      9825      3275  TIP3      H2             12.2981416386       -3.2721756141       13.8450953451  W2        3450            0.0000000000
      9826      3276  TIP3      OH2             0.1121516386        4.6840843859       16.2206153451  W2        3451            0.0000000000
      9827      3276  TIP3      H1             -0.1797183614        5.4522543859       15.7297453451  W2        3451            0.0000000000
      9828      3276  TIP3      H2             -0.5623283614        4.0247043859       16.0577553451  W2        3451            0.0000000000
      9829      3277  TIP3      OH2            13.2354416386       10.2626043859       12.6233153451  W2        3452            0.0000000000
      9830      3277  TIP3      H1             13.3087916386       11.2016243859       12.7938453451  W2        3452            0.0000000000
      9831      3277  TIP3      H2             14.1409516386        9.9574643859       12.5670453451  W2        3452            0.0000000000
      9832      3278  TIP3      OH2            -3.7948383614        7.0470043859       25.0355953451  W2        3453            0.0000000000
      9833      3278  TIP3      H1             -4.2959983614        7.0189443859       24.2205653451  W2        3453            0.0000000000
      9834      3278  TIP3      H2             -3.7894683614        6.1413243859       25.3453253451  W2        3453            0.0000000000
      9835      3279  TIP3      OH2            -4.0445683614        9.8273843859       21.9196153451  W2        3454            0.0000000000
      9836      3279  TIP3      H1             -3.0985083614        9.6830843859       21.9005653451  W2        3454            0.0000000000
      9837      3279  TIP3      H2             -4.1569383614       10.6116643859       22.4567353451  W2        3454            0.0000000000
      9838      3280  TIP3      OH2             5.5462616386       13.8396443859       16.2841853451  W2        3457            0.0000000000
      9839      3280  TIP3      H1              5.4708616386       13.7183643859       15.3377053451  W2        3457            0.0000000000
      9840      3280  TIP3      H2              5.5791316386       14.7889143859       16.4026453451  W2        3457            0.0000000000
      9841      3281  TIP3      OH2            -0.8003583614       12.6283443859       18.0650853451  W2        3458            0.0000000000
      9842      3281  TIP3      H1             -0.6483183614       12.2803843859       18.9437353451  W2        3458            0.0000000000
      9843      3281  TIP3      H2             -1.6513183614       12.2720743859       17.8098053451  W2        3458            0.0000000000
      9844      3282  TIP3      OH2             8.6478616386       12.9936643859       13.2864253451  W2        3459            0.0000000000
      9845      3282  TIP3      H1              9.0227016386       12.2492743859       12.8156853451  W2        3459            0.0000000000
      9846      3282  TIP3      H2              8.6522316386       12.7237243859       14.2047553451  W2        3459            0.0000000000
      9847      3283  TIP3      OH2             8.3166716386       12.9193743859       16.0356453451  W2        3460            0.0000000000
      9848      3283  TIP3      H1              7.3816516386       13.0195643859       16.2143453451  W2        3460            0.0000000000
      9849      3283  TIP3      H2              8.5968616386       12.2099743859       16.6139653451  W2        3460            0.0000000000
      9850      3284  TIP3      OH2            -1.5457883614        8.3705443859       26.0788753451  W2        3462            0.0000000000
      9851      3284  TIP3      H1             -1.3296583614        8.0091043859       26.9384553451  W2        3462            0.0000000000
      9852      3284  TIP3      H2             -2.4013183614        7.9959243859       25.8692253451  W2        3462            0.0000000000
      9853      3285  TIP3      OH2             1.0730116386       -3.1594056141       22.0742953451  W2        3463            0.0000000000
      9854      3285  TIP3      H1              0.2113816386       -3.2465856141       21.6665853451  W2        3463            0.0000000000
      9855      3285  TIP3      H2              1.0505816386       -2.3033956141       22.5020553451  W2        3463            0.0000000000
      9856      3286  TIP3      OH2             5.7357916386       -3.4373656141       25.4489953451  W2        3464            0.0000000000
      9857      3286  TIP3      H1              6.1561016386       -3.8526556141       26.2020553451  W2        3464            0.0000000000
      9858      3286  TIP3      H2              4.8027516386       -3.6160356141       25.5661953451  W2        3464            0.0000000000
      9859      3287  TIP3      OH2             9.8247716386        5.1791543859       12.0637453451  W2        3466            0.0000000000
      9860      3287  TIP3      H1              9.8668516386        4.9565443859       11.1337453451  W2        3466            0.0000000000
      9861      3287  TIP3      H2             10.6739816386        5.5778643859       12.2537353451  W2        3466            0.0000000000
      9862      3288  TIP3      OH2             5.3975216386       -0.9450256141       12.7340753451  W2        3467            0.0000000000
      9863      3288  TIP3      H1              5.1440016386       -0.9258656141       13.6568853451  W2        3467            0.0000000000
      9864      3288  TIP3      H2              5.1407316386       -1.8164856141       12.4326953451  W2        3467            0.0000000000
      9865      3289  TIP3      OH2             1.1640216386        1.8060443859       23.1693153451  W2        3468            0.0000000000
      9866      3289  TIP3      H1              0.5222316386        1.7657743859       23.8783253451  W2        3468            0.0000000000
      9867      3289  TIP3      H2              1.2012216386        2.7325143859       22.9316153451  W2        3468            0.0000000000
      9868      3290  TIP3      OH2             1.1609316386        2.0270543859       18.0813153451  W2        3469            0.0000000000
      9869      3290  TIP3      H1              0.2682216386        1.6866643859       18.0226953451  W2        3469            0.0000000000
      9870      3290  TIP3      H2              1.6115916386        1.6501443859       17.3256353451  W2        3469            0.0000000000
      9871      3291  TIP3      OH2             6.6964816386        2.4430843859       16.8983953451  W2        3470            0.0000000000
      9872      3291  TIP3      H1              6.2875116386        3.2579443859       16.6068753451  W2        3470            0.0000000000
      9873      3291  TIP3      H2              7.4171016386        2.3030943859       16.2841053451  W2        3470            0.0000000000
      9874      3292  TIP3      OH2             7.7012516386        1.8891243859       19.7123653451  W2        3472            0.0000000000
      9875      3292  TIP3      H1              7.5057016386        2.4948043859       18.9974253451  W2        3472            0.0000000000
      9876      3292  TIP3      H2              7.8825116386        1.0556443859       19.2779953451  W2        3472            0.0000000000
      9877      3293  TIP3      OH2            -1.0859283614        2.1263943859       25.0365153451  W2        3473            0.0000000000
      9878      3293  TIP3      H1             -1.1239883614        2.5265543859       25.9052253451  W2        3473            0.0000000000
      9879      3293  TIP3      H2             -1.5768183614        1.3096343859       25.1268053451  W2        3473            0.0000000000
      9880      3294  TIP3      OH2             2.2798116386       -0.4993756141       11.8351153451  W2        3474            0.0000000000
      9881      3294  TIP3      H1              1.8488816386       -0.9443656141       12.5648553451  W2        3474            0.0000000000
      9882      3294  TIP3      H2              1.5616816386       -0.1277456141       11.3228653451  W2        3474            0.0000000000
      9883      3295  TIP3      OH2            -4.4778483614       -0.7574256141       18.8869853451  W2        3475            0.0000000000
      9884      3295  TIP3      H1             -3.8470783614       -0.7862156141       19.6063753451  W2        3475            0.0000000000
      9885      3295  TIP3      H2             -4.0284183614       -1.1825556141       18.1565753451  W2        3475            0.0000000000
      9886      3296  TIP3      OH2            -3.2036383614       -0.0112256141       14.3110253451  W2        3476            0.0000000000
      9887      3296  TIP3      H1             -2.7294683614        0.5797643859       13.7261153451  W2        3476            0.0000000000
      9888      3296  TIP3      H2             -3.9209983614        0.5190643859       14.6580353451  W2        3476            0.0000000000
      9889      3297  TIP3      OH2             6.9651716386        3.5272543859       24.3836053451  W2        3477            0.0000000000
      9890      3297  TIP3      H1              7.2886516386        2.8962243859       23.7406553451  W2        3477            0.0000000000
      9891      3297  TIP3      H2              6.5251016386        2.9924743859       25.0443453451  W2        3477            0.0000000000
      9892      3298  TIP3      OH2             3.7424616386       -0.5451956141       19.1677253451  W2        3478            0.0000000000
      9893      3298  TIP3      H1              2.8315716386       -0.4885156141       19.4563253451  W2        3478            0.0000000000
      9894      3298  TIP3      H2              4.2477516386       -0.6056456141       19.9784453451  W2        3478            0.0000000000
      9895      3299  TIP3      OH2            -1.4291983614        1.0834343859       17.9944853451  W2        3479            0.0000000000
      9896      3299  TIP3      H1             -2.3183983614        1.1829843859       17.6544453451  W2        3479            0.0000000000
      9897      3299  TIP3      H2             -1.1327083614        0.2417343859       17.6482753451  W2        3479            0.0000000000
      9898      3300  TIP3      OH2             2.2239816386        1.0836943859       15.6509453451  W2        3480            0.0000000000
      9899      3300  TIP3      H1              3.1555316386        1.2126943859       15.8292553451  W2        3480            0.0000000000
      9900      3300  TIP3      H2              2.0090116386        1.7531243859       15.0014153451  W2        3480            0.0000000000
      9901      3301  TIP3      OH2             8.1476516386       -1.3105656141       22.4319053451  W2        3481            0.0000000000
      9902      3301  TIP3      H1              7.4708116386       -1.1792556141       23.0958753451  W2        3481            0.0000000000
      9903      3301  TIP3      H2              7.6621416386       -1.4656156141       21.6216753451  W2        3481            0.0000000000
      9904      3302  TIP3      OH2             0.8980016386        2.2779143859       13.2175553451  W2        3482            0.0000000000
      9905      3302  TIP3      H1              0.3555116386        1.8982943859       12.5263153451  W2        3482            0.0000000000
      9906      3302  TIP3      H2              1.7314916386        2.4723843859       12.7889653451  W2        3482            0.0000000000
      9907      3303  TIP3      OH2             5.0624316386        2.2421043859       21.0546853451  W2        3485            0.0000000000
      9908      3303  TIP3      H1              5.6267716386        1.6957643859       20.5076453451  W2        3485            0.0000000000
      9909      3303  TIP3      H2              4.9147716386        1.7202943859       21.8434453451  W2        3485            0.0000000000
      9910      3304  TIP3      OH2             0.0644016386       -1.6212856141       17.4731653451  W2        3486            0.0000000000
      9911      3304  TIP3      H1             -0.2526483614       -2.5237556141       17.4377053451  W2        3486            0.0000000000
      9912      3304  TIP3      H2              0.8458116386       -1.6195456141       16.9203253451  W2        3486            0.0000000000
      9913      3305  TIP3      OH2             3.6890216386        0.6307143859       23.4687253451  W2        3487            0.0000000000
      9914      3305  TIP3      H1              2.8535516386        1.0846643859       23.5789653451  W2        3487            0.0000000000
      9915      3305  TIP3      H2              4.2130816386        0.9065643859       24.2207153451  W2        3487            0.0000000000
      9916      3306  TIP3      OH2             4.2332816386        6.8434843859       15.1533653451  W2        3488            0.0000000000
      9917      3306  TIP3      H1              3.4883816386        6.3360143859       14.8311553451  W2        3488            0.0000000000
      9918      3306  TIP3      H2              4.0990016386        6.8922843859       16.0998453451  W2        3488            0.0000000000
      9919      3307  TIP3      OH2            11.3831716386        5.9763043859       23.9401253451  W2        3489            0.0000000000
      9920      3307  TIP3      H1             12.0250516386        6.4329343859       23.3963453451  W2        3489            0.0000000000
      9921      3307  TIP3      H2             10.5528616386        6.0895443859       23.4775353451  W2        3489            0.0000000000
      9922      3308  TIP3      OH2             8.1309616386       -0.3425256141       13.3526253451  W2        3490            0.0000000000
      9923      3308  TIP3      H1              7.1923816386       -0.2309656141       13.2015053451  W2        3490            0.0000000000
      9924      3308  TIP3      H2              8.4281716386        0.5141643859       13.6591953451  W2        3490            0.0000000000
      9925      3309  TIP3      OH2             8.8493116386        1.5247443859       15.0133653451  W2        3492            0.0000000000
      9926      3309  TIP3      H1              9.7412116386        1.3872443859       15.3324853451  W2        3492            0.0000000000
      9927      3309  TIP3      H2              8.9056716386        2.3153543859       14.4767153451  W2        3492            0.0000000000
      9928      3310  TIP3      OH2            -0.6418883614        6.1384843859       20.9231553451  W2        3493            0.0000000000
      9929      3310  TIP3      H1              0.1028316386        6.1360543859       20.3218053451  W2        3493            0.0000000000
      9930      3310  TIP3      H2             -0.5642283614        5.3148643859       21.4046653451  W2        3493            0.0000000000
      9931      3311  TIP3      OH2             6.3586916386        8.3019143859       14.1788253451  W2        3494            0.0000000000
      9932      3311  TIP3      H1              6.0635316386        9.1287043859       14.5603053451  W2        3494            0.0000000000
      9933      3311  TIP3      H2              5.6556916386        7.6826043859       14.3749653451  W2        3494            0.0000000000
      9934      3312  TIP3      OH2            13.7341816386        1.7341543859       14.7080353451  W2        3498            0.0000000000
      9935      3312  TIP3      H1             13.1798116386        1.3379543859       14.0357853451  W2        3498            0.0000000000
      9936      3312  TIP3      H2             13.8345416386        2.6446743859       14.4303653451  W2        3498            0.0000000000
      9937      3313  TIP3      OH2            12.0293516386       10.5201943859       15.1732453451  W2        3500            0.0000000000
      9938      3313  TIP3      H1             11.6564616386        9.6945743859       15.4823053451  W2        3500            0.0000000000
      9939      3313  TIP3      H2             12.3067016386       10.3371343859       14.2755853451  W2        3500            0.0000000000
      9940      3314  TIP3      OH2             9.1897416386        5.3281443859       22.1944353451  W2        3501            0.0000000000
      9941      3314  TIP3      H1              8.2614316386        5.0963343859       22.1673653451  W2        3501            0.0000000000
      9942      3314  TIP3      H2              9.6408516386        4.5511243859       21.8643153451  W2        3501            0.0000000000
      9943      3315  TIP3      OH2             1.7330516386        9.6563043859       18.3273053451  W2        3502            0.0000000000
      9944      3315  TIP3      H1              2.2602716386       10.4297443859       18.1271853451  W2        3502            0.0000000000
      9945      3315  TIP3      H2              0.8529016386        9.8812243859       18.0257053451  W2        3502            0.0000000000
      9946      3316  TIP3      OH2            -2.5121783614        4.5187143859       12.9145453451  W2        3503            0.0000000000
      9947      3316  TIP3      H1             -1.8961883614        5.1454343859       13.2940253451  W2        3503            0.0000000000
      9948      3316  TIP3      H2             -3.3739183614        4.8346943859       13.1861953451  W2        3503            0.0000000000
      9949      3317  TIP3      OH2             3.1602816386        7.3192943859       17.9037353451  W2        3504            0.0000000000
      9950      3317  TIP3      H1              2.9192816386        8.2447343859       17.9452653451  W2        3504            0.0000000000
      9951      3317  TIP3      H2              2.4196416386        6.8604243859       18.3001253451  W2        3504            0.0000000000
      9952      3318  TIP3      OH2             3.6749416386       11.4686543859       24.2188453451  W2        3505            0.0000000000
      9953      3318  TIP3      H1              4.0374116386       12.3232143859       23.9852853451  W2        3505            0.0000000000
      9954      3318  TIP3      H2              4.2064616386       11.1768143859       24.9594753451  W2        3505            0.0000000000
      9955      3319  TIP3      OH2             1.8433616386       12.3410543859       17.4489553451  W2        3506            0.0000000000
      9956      3319  TIP3      H1              0.8934116386       12.4467943859       17.5002853451  W2        3506            0.0000000000
      9957      3319  TIP3      H2              2.1951716386       13.1617943859       17.7937053451  W2        3506            0.0000000000
      9958      3320  TIP3      OH2             7.2190216386        7.5677243859       23.9194053451  W2        3507            0.0000000000
      9959      3320  TIP3      H1              6.7931516386        7.3398943859       24.7458053451  W2        3507            0.0000000000
      9960      3320  TIP3      H2              7.7996016386        6.8289043859       23.7369353451  W2        3507            0.0000000000
      9961      3321  TIP3      OH2             9.4219116386        8.4967743859       12.9933053451  W2        3508            0.0000000000
      9962      3321  TIP3      H1              9.7752216386        8.1167543859       13.7976553451  W2        3508            0.0000000000
      9963      3321  TIP3      H2              8.4732616386        8.4032543859       13.0802353451  W2        3508            0.0000000000
      9964      3322  TIP3      OH2            13.9253516386       12.9760243859       13.1943253451  W2        3510            0.0000000000
      9965      3322  TIP3      H1             14.6691416386       13.5620743859       13.0544853451  W2        3510            0.0000000000
      9966      3322  TIP3      H2             13.2311616386       13.5446043859       13.5275653451  W2        3510            0.0000000000
      9967      3323  TIP3      OH2            -1.9999683614       -0.6475556141       25.7961453451  W2        3511            0.0000000000
      9968      3323  TIP3      H1             -2.8927383614       -0.3090156141       25.7285453451  W2        3511            0.0000000000
      9969      3323  TIP3      H2             -2.0986883614       -1.5029456141       26.2142253451  W2        3511            0.0000000000
      9970      3324  TIP3      OH2            10.2878416386        7.1689743859       15.2200953451  W2        3512            0.0000000000
      9971      3324  TIP3      H1             10.0106016386        6.4409043859       15.7762053451  W2        3512            0.0000000000
      9972      3324  TIP3      H2             11.2151416386        7.2881743859       15.4253553451  W2        3512            0.0000000000
      9973      3325  TIP3      OH2            -2.3487683614       11.1568843859       24.2310853451  W2        3513            0.0000000000
      9974      3325  TIP3      H1             -2.1317383614       10.2251243859       24.2000553451  W2        3513            0.0000000000
      9975      3325  TIP3      H2             -2.1024183614       11.4313843859       25.1143653451  W2        3513            0.0000000000
      9976      3326  TIP3      OH2             3.5126916386        9.6083843859       11.4403053451  W2        3514            0.0000000000
      9977      3326  TIP3      H1              3.7516716386        8.8601943859       10.8931953451  W2        3514            0.0000000000
      9978      3326  TIP3      H2              3.2438216386        9.2205543859       12.2730853451  W2        3514            0.0000000000
      9979      3327  TIP3      OH2             2.4497516386        9.1787643859       13.8965653451  W2        3515            0.0000000000
      9980      3327  TIP3      H1              2.5965516386        8.6587443859       14.6866553451  W2        3515            0.0000000000
      9981      3327  TIP3      H2              2.4469216386       10.0855243859       14.2031553451  W2        3515            0.0000000000
      9982      3328  TIP3      OH2            -1.0971383614        6.4310943859       14.4071053451  W2        3516            0.0000000000
      9983      3328  TIP3      H1             -1.7832083614        6.7833443859       14.9740753451  W2        3516            0.0000000000
      9984      3328  TIP3      H2             -0.5743483614        7.1940543859       14.1605353451  W2        3516            0.0000000000
      9985      3329  TIP3      OH2             6.7343716386       -0.9065256141       24.6860053451  W2        3517            0.0000000000
      9986      3329  TIP3      H1              7.4331616386       -0.8326556141       25.3359753451  W2        3517            0.0000000000
      9987      3329  TIP3      H2              6.3535116386       -1.7710256141       24.8402953451  W2        3517            0.0000000000
      9988      3330  TIP3      OH2             7.5188616386       -1.2543556141       15.7832353451  W2        3518            0.0000000000
      9989      3330  TIP3      H1              7.7386916386       -0.7828156141       14.9797753451  W2        3518            0.0000000000
      9990      3330  TIP3      H2              8.0772616386       -0.8600956141       16.4532953451  W2        3518            0.0000000000
      9991      3331  TIP3      OH2             5.1874716386       10.8761243859       14.6459853451  W2        3519            0.0000000000
      9992      3331  TIP3      H1              4.3710816386       11.3730943859       14.6984153451  W2        3519            0.0000000000
      9993      3331  TIP3      H2              5.7171016386       11.3514743859       14.0058653451  W2        3519            0.0000000000
      9994      3332  TIP3      OH2             4.7188516386        0.4735243859       16.6180753451  W2        3520            0.0000000000
      9995      3332  TIP3      H1              5.5311116386        0.9778443859       16.6642453451  W2        3520            0.0000000000
      9996      3332  TIP3      H2              4.4741516386        0.3284943859       17.5320353451  W2        3520            0.0000000000
      9997      3333  TIP3      OH2             5.2544916386        1.4597943859       25.8027353451  W2        3521            0.0000000000
      9998      3333  TIP3      H1              5.3735216386        2.0333343859       26.5597753451  W2        3521            0.0000000000
      9999      3333  TIP3      H2              5.9099516386        0.7717343859       25.9175153451  W2        3521            0.0000000000
     10000      3334  TIP3      OH2             5.6025216386       -2.4451756141       17.5561853451  W2        3522            0.0000000000
     10001      3334  TIP3      H1              5.2558716386       -1.8281156141       18.2006153451  W2        3522            0.0000000000
     10002      3334  TIP3      H2              6.2612116386       -1.9446056141       17.0747353451  W2        3522            0.0000000000
     10003      3335  TIP3      OH2             2.5257816386       11.9198443859       14.6276753451  W2        3523            0.0000000000
     10004      3335  TIP3      H1              2.6866516386       12.7195943859       14.1269353451  W2        3523            0.0000000000
     10005      3335  TIP3      H2              2.3285616386       12.2264443859       15.5127353451  W2        3523            0.0000000000
     10006      3336  TIP3      OH2             1.2602216386       -1.3822356141       14.2434353451  W2        3524            0.0000000000
     10007      3336  TIP3      H1              1.1767016386       -0.4939256141       14.5900753451  W2        3524            0.0000000000
     10008      3336  TIP3      H2              2.1502516386       -1.6475656141       14.4751153451  W2        3524            0.0000000000
     10009      3337  TIP3      OH2            10.0611716386        3.1169243859       20.7334353451  W2        3526            0.0000000000
     10010      3337  TIP3      H1              9.2636116386        2.7019443859       20.4049353451  W2        3526            0.0000000000
     10011      3337  TIP3      H2             10.5062816386        2.4262943859       21.2244853451  W2        3526            0.0000000000
     10012      3338  TIP3      OH2            -0.4812483614        9.0449843859       13.3038853451  W2        3527            0.0000000000
     10013      3338  TIP3      H1              0.1109016386        9.7444643859       13.5801253451  W2        3527            0.0000000000
     10014      3338  TIP3      H2             -0.0219483614        8.6119343859       12.5843453451  W2        3527            0.0000000000
     10015      3339  TIP3      OH2            -2.1653283614        1.7092843859       12.4198253451  W2        3528            0.0000000000
     10016      3339  TIP3      H1             -2.2100683614        2.6485943859       12.5985253451  W2        3528            0.0000000000
     10017      3339  TIP3      H2             -3.0530083614        1.4737743859       12.1500353451  W2        3528            0.0000000000
     10018      3340  TIP3      OH2            11.1476316386       12.3731743859       22.3557853451  W2        3529            0.0000000000
     10019      3340  TIP3      H1             10.9920616386       13.0516143859       21.6987153451  W2        3529            0.0000000000
     10020      3340  TIP3      H2             12.0802716386       12.4451043859       22.5588453451  W2        3529            0.0000000000
     10021      3341  TIP3      OH2            -1.3571283614       -3.5090556141       21.0929253451  W2        3530            0.0000000000
     10022      3341  TIP3      H1             -1.5861483614       -3.4498056141       20.1654253451  W2        3530            0.0000000000
     10023      3341  TIP3      H2             -1.7997883614       -4.3005056141       21.3993353451  W2        3530            0.0000000000
     10024      3342  TIP3      OH2            -2.4267983614       10.4316543859       17.2535053451  W2        3531            0.0000000000
     10025      3342  TIP3      H1             -3.2589383614       10.9039243859       17.2806453451  W2        3531            0.0000000000
     10026      3342  TIP3      H2             -1.8809683614       10.9414143859       16.6548153451  W2        3531            0.0000000000
     10027      3343  TIP3      OH2             5.5508716386       11.4715243859       11.5789053451  W2        3534            0.0000000000
     10028      3343  TIP3      H1              4.9069716386       10.8403843859       11.9002753451  W2        3534            0.0000000000
     10029      3343  TIP3      H2              6.3127016386       10.9403243859       11.3472553451  W2        3534            0.0000000000
     10030      3344  TIP3      OH2            10.1551616386       11.2885143859       11.8127053451  W2        3536            0.0000000000
     10031      3344  TIP3      H1             10.4382016386       10.4940343859       12.2653953451  W2        3536            0.0000000000
     10032      3344  TIP3      H2             10.8949516386       11.5216143859       11.2518153451  W2        3536            0.0000000000
     10033      3345  TIP3      OH2             1.1098916386        7.1980043859       11.6701953451  W2        3538            0.0000000000
     10034      3345  TIP3      H1              1.1743016386        6.4039643859       12.2008353451  W2        3538            0.0000000000
     10035      3345  TIP3      H2              1.7628116386        7.0792843859       10.9803953451  W2        3538            0.0000000000
     10036      3346  TIP3      OH2             6.4622316386        8.2451743859       11.4059953451  W2        3540            0.0000000000
     10037      3346  TIP3      H1              6.1936416386        8.4253843859       12.3068853451  W2        3540            0.0000000000
     10038      3346  TIP3      H2              6.2557916386        7.3197943859       11.2745753451  W2        3540            0.0000000000
     10039      3347  TIP3      OH2             2.2592716386        5.1706243859       13.9759953451  W2        3543            0.0000000000
     10040      3347  TIP3      H1              1.7994716386        4.6864543859       14.6618453451  W2        3543            0.0000000000
     10041      3347  TIP3      H2              2.5141416386        4.5021643859       13.3400453451  W2        3543            0.0000000000
     10042      3348  TIP3      OH2             3.3303116386        3.4138043859       12.2383153451  W2        3545            0.0000000000
     10043      3348  TIP3      H1              3.1498116386        3.2589243859       11.3111453451  W2        3545            0.0000000000
     10044      3348  TIP3      H2              4.2803616386        3.5216743859       12.2831053451  W2        3545            0.0000000000
     10045      3349  TIP3      OH2            12.7201416386        5.7682243859       11.6841253451  W2        3547            0.0000000000
     10046      3349  TIP3      H1             12.4466216386        5.3437743859       10.8709553451  W2        3547            0.0000000000
     10047      3349  TIP3      H2             12.7595516386        6.6996743859       11.4671653451  W2        3547            0.0000000000
     10048      3350  TIP3      OH2             2.3001416386       -1.2120056141       24.9070053451  W2        3549            0.0000000000
     10049      3350  TIP3      H1              2.8358916386       -0.7603356141       24.2549353451  W2        3549            0.0000000000
     10050      3350  TIP3      H2              1.4481016386       -1.3200256141       24.4844153451  W2        3549            0.0000000000
     10051      3351  TIP3      OH2             3.8819816386        4.2276143859       25.1465253451  W2        3550            0.0000000000
     10052      3351  TIP3      H1              4.6324616386        4.0713643859       24.5733053451  W2        3550            0.0000000000
     10053      3351  TIP3      H2              3.5428116386        5.0792743859       24.8710753451  W2        3550            0.0000000000
     10054      3352  TIP3      OH2             3.1056916386       -3.7554356141       25.3383653451  W2        3554            0.0000000000
     10055      3352  TIP3      H1              3.0076516386       -2.8091156141       25.2329853451  W2        3554            0.0000000000
     10056      3352  TIP3      H2              2.3633116386       -4.1280556141       24.8627153451  W2        3554            0.0000000000
     10057      3353  TIP3      OH2             3.2274816386       14.1041743859       13.2396753451  W2        3561            0.0000000000
     10058      3353  TIP3      H1              4.1605516386       14.2620443859       13.3835153451  W2        3561            0.0000000000
     10059      3353  TIP3      H2              2.9633616386       14.7794743859       12.6148253451  W2        3561            0.0000000000
     10060      3354  TIP3      OH2            -3.2040283614        8.7405543859       12.7224853451  W2        3562            0.0000000000
     10061      3354  TIP3      H1             -2.2901083614        8.8194443859       12.9958753451  W2        3562            0.0000000000
     10062      3354  TIP3      H2             -3.1967183614        8.0535143859       12.0560453451  W2        3562            0.0000000000
     10063      3355  TIP3      OH2            -4.5549683614       14.1334043859       17.7998753451  W2        3563            0.0000000000
     10064      3355  TIP3      H1             -5.2022583614       13.6715743859       17.2669953451  W2        3563            0.0000000000
     10065      3355  TIP3      H2             -4.2005083614       13.4617343859       18.3824953451  W2        3563            0.0000000000
     10066      3356  TIP3      OH2            -3.6850483614       12.2141043859       19.6044953451  W2        3564            0.0000000000
     10067      3356  TIP3      H1             -4.0193683614       11.3338343859       19.7765153451  W2        3564            0.0000000000
     10068      3356  TIP3      H2             -3.4628083614       12.5596043859       20.4690553451  W2        3564            0.0000000000
     10069      3357  TIP3      OH2            13.8634316386       13.0237443859       22.5849753451  W2        3565            0.0000000000
     10070      3357  TIP3      H1             13.8421016386       13.2085843859       23.5239153451  W2        3565            0.0000000000
     10071      3357  TIP3      H2             14.5540516386       13.5921443859       22.2441153451  W2        3565            0.0000000000
     10072      3358  TIP3      OH2            13.4267216386       12.5908543859       25.5068853451  W2        3566            0.0000000000
     10073      3358  TIP3      H1             12.9395916386       11.8552643859       25.1356253451  W2        3566            0.0000000000
     10074      3358  TIP3      H2             13.9759916386       12.1972443859       26.1848253451  W2        3566            0.0000000000
     10075      3359  TIP3      OH2            13.1784216386        6.6370343859       15.6591653451  W2        3568            0.0000000000
     10076      3359  TIP3      H1             14.0285616386        7.0581243859       15.7863253451  W2        3568            0.0000000000
     10077      3359  TIP3      H2             13.1839316386        5.8970443859       16.2663053451  W2        3568            0.0000000000
     10078      3360  TIP3      OH2            13.5729816386        4.6907743859       17.4827353451  W2        3569            0.0000000000
     10079      3360  TIP3      H1             12.8464416386        4.2110343859       17.8804953451  W2        3569            0.0000000000
     10080      3360  TIP3      H2             14.1543116386        4.8962443859       18.2148953451  W2        3569            0.0000000000
     10081      3361  TIP3      OH2            13.3321016386        7.4755243859       22.4304953451  W2        3570            0.0000000000
     10082      3361  TIP3      H1             14.1655216386        7.0975243859       22.1498553451  W2        3570            0.0000000000
     10083      3361  TIP3      H2             13.4441316386        8.4186443859       22.3114053451  W2        3570            0.0000000000
     10084      3362  TIP3      OH2            11.8183316386       10.3532743859       24.7373353451  W2        3571            0.0000000000
     10085      3362  TIP3      H1             11.1708616386       10.6784243859       25.3628553451  W2        3571            0.0000000000
     10086      3362  TIP3      H2             11.3007316386        9.9130443859       24.0631653451  W2        3571            0.0000000000
     10087      3363  TIP3      OH2            13.8412916386        4.5916243859       13.8738653451  W2        3572            0.0000000000
     10088      3363  TIP3      H1             13.3194016386        4.9480343859       13.1549553451  W2        3572            0.0000000000
     10089      3363  TIP3      H2             13.8082116386        5.2664043859       14.5519553451  W2        3572            0.0000000000
     10090      3364  TIP3      OH2            12.1901916386        1.8311843859       12.4245753451  W2        3573            0.0000000000
     10091      3364  TIP3      H1             12.2866316386        2.4978843859       11.7445453451  W2        3573            0.0000000000
     10092      3364  TIP3      H2             12.0501516386        1.0158143859       11.9431253451  W2        3573            0.0000000000
     10093      3365  TIP3      OH2            11.3596616386        3.2114243859       18.0456053451  W2        3574            0.0000000000
     10094      3365  TIP3      H1             11.2095416386        2.2662843859       18.0253853451  W2        3574            0.0000000000
     10095      3365  TIP3      H2             11.0061116386        3.4925643859       18.8895153451  W2        3574            0.0000000000
     10096      3366  TIP3      OH2            -3.6050983614        5.2896443859       22.0559853451  W2        3575            0.0000000000
     10097      3366  TIP3      H1             -3.4208083614        5.2078143859       21.1202753451  W2        3575            0.0000000000
     10098      3366  TIP3      H2             -2.7558083614        5.1653443859       22.4796253451  W2        3575            0.0000000000
     10099      3367  TIP3      OH2            11.4375716386       -0.7608356141       11.5421253451  W2        3578            0.0000000000
     10100      3367  TIP3      H1             12.0481516386       -1.1321556141       12.1789453451  W2        3578            0.0000000000
     10101      3367  TIP3      H2             10.6007216386       -1.1821456141       11.7381253451  W2        3578            0.0000000000
     10102      3368  TIP3      OH2            11.0701416386        0.7940043859       16.5081153451  W2        3579            0.0000000000
     10103      3368  TIP3      H1             11.3498516386       -0.1129556141       16.6322853451  W2        3579            0.0000000000
     10104      3368  TIP3      H2             11.8293116386        1.2281543859       16.1190353451  W2        3579            0.0000000000
     10105      3369  TIP3      OH2            11.6819716386        1.3757443859       21.9440053451  W2        3580            0.0000000000
     10106      3369  TIP3      H1             12.6147716386        1.5877343859       21.9096053451  W2        3580            0.0000000000
     10107      3369  TIP3      H2             11.4467216386        1.4769543859       22.8663053451  W2        3580            0.0000000000
     10108      3370  TIP3      OH2            11.7111616386        2.1122743859       24.7199453451  W2        3581            0.0000000000
     10109      3370  TIP3      H1             10.8682916386        2.3803143859       25.0859253451  W2        3581            0.0000000000
     10110      3370  TIP3      H2             12.1535916386        2.9344643859       24.5090553451  W2        3581            0.0000000000
     10111      3371  TIP3      OH2            11.6836216386       -1.9430656141       16.5563153451  W2        3584            0.0000000000
     10112      3371  TIP3      H1             11.8661216386       -2.3919156141       17.3818153451  W2        3584            0.0000000000
     10113      3371  TIP3      H2             11.0839116386       -2.5276256141       16.0927753451  W2        3584            0.0000000000
     10114      3372  TIP3      OH2            -2.7863683614       -1.1276956141       21.0881553451  W2        3585            0.0000000000
     10115      3372  TIP3      H1             -2.3412083614       -1.9194456141       21.3901253451  W2        3585            0.0000000000
     10116      3372  TIP3      H2             -2.3200683614       -0.4111756141       21.5187153451  W2        3585            0.0000000000
     10117      3373  TIP3      OH2            -4.4823383614        1.8716043859       22.1571753451  W2        3586            0.0000000000
     10118      3373  TIP3      H1             -3.9903583614        1.6506543859       21.3663753451  W2        3586            0.0000000000
     10119      3373  TIP3      H2             -4.1202483614        2.7119443859       22.4381253451  W2        3586            0.0000000000
     10120      3374  TIP3      OH2            13.5502416386       -1.8752556141       13.0843453451  W2        3588            0.0000000000
     10121      3374  TIP3      H1             13.9625016386       -2.5966856141       12.6091453451  W2        3588            0.0000000000
     10122      3374  TIP3      H2             14.2318916386       -1.2057956141       13.1427753451  W2        3588            0.0000000000
     10123      3375  TIP3      OH2            -4.1686883614       -1.8704856141       16.2114153451  W2        3589            0.0000000000
     10124      3375  TIP3      H1             -5.0938483614       -1.6618256141       16.0819653451  W2        3589            0.0000000000
     10125      3375  TIP3      H2             -3.7146983614       -1.3864056141       15.5216453451  W2        3589            0.0000000000
     10126      3376  TIP3      OH2            10.6020316386       13.1136843859       18.1571553451  W2        3590            0.0000000000
     10127      3376  TIP3      H1             11.2543216386       12.7658943859       17.5490653451  W2        3590            0.0000000000
     10128      3376  TIP3      H2             11.1124116386       13.6020043859       18.8031253451  W2        3590            0.0000000000
     10129      3377  TIP3      OH2            -4.2051483614       -3.1325856141       24.5556653451  W2        3591            0.0000000000
     10130      3377  TIP3      H1             -4.8700983614       -3.3785556141       25.1987553451  W2        3591            0.0000000000
     10131      3377  TIP3      H2             -4.6480183614       -2.5105456141       23.9784653451  W2        3591            0.0000000000
     10132      3378  TIP3      OH2             0.9410716386       11.0169443859       24.9586453451  W2        3593            0.0000000000
     10133      3378  TIP3      H1              0.5161816386       11.8267943859       24.6761053451  W2        3593            0.0000000000
     10134      3378  TIP3      H2              1.8453516386       11.1023543859       24.6566253451  W2        3593            0.0000000000
     10135      3379  TIP3      OH2            -1.6572583614       14.2733343859       25.0061753451  W2        3597            0.0000000000
     10136      3379  TIP3      H1             -2.3776183614       14.7134343859       24.5549453451  W2        3597            0.0000000000
     10137      3379  TIP3      H2             -2.0228583614       14.0228043859       25.8545753451  W2        3597            0.0000000000
     10138      3380  TIP3      OH2             0.8100016386       13.8737243859       24.0358953451  W2        3598            0.0000000000
     10139      3380  TIP3      H1             -0.0547783614       13.9455743859       24.4399053451  W2        3598            0.0000000000
     10140      3380  TIP3      H2              0.7549016386       14.4204543859       23.2521453451  W2        3598            0.0000000000
     10141      3381  TIP3      OH2             5.5205616386       13.7616143859       23.2114953451  W2        3599            0.0000000000
     10142      3381  TIP3      H1              5.0639616386       14.2905843859       22.5573353451  W2        3599            0.0000000000
     10143      3381  TIP3      H2              5.6833616386       14.3647543859       23.9367253451  W2        3599            0.0000000000
     10144      3382  TIP3      OH2             7.8481916386       12.6395743859       24.1565253451  W2        3600            0.0000000000
     10145      3382  TIP3      H1              6.9435616386       12.8045943859       23.8907353451  W2        3600            0.0000000000
     10146      3382  TIP3      H2              8.2770516386       13.4927943859       24.0908653451  W2        3600            0.0000000000
     10147      3383  TIP3      OH2            10.4523816386       14.2094843859       24.4513053451  W2        3601            0.0000000000
     10148      3383  TIP3      H1             10.2705816386       15.1253743859       24.2407953451  W2        3601            0.0000000000
     10149      3383  TIP3      H2             10.6291616386       13.7991943859       23.6047653451  W2        3601            0.0000000000
     10150      3384  TIP3      OH2            -2.2424483614       12.8965843859       21.9163553451  W2        3602            0.0000000000
     10151      3384  TIP3      H1             -2.2608483614       12.4710943859       22.7735853451  W2        3602            0.0000000000
     10152      3384  TIP3      H2             -1.4376583614       12.5780843859       21.5075753451  W2        3602            0.0000000000
     10153      3385  TIP3      OH2            -0.1011383614       11.6064543859       20.5713453451  W2        3603            0.0000000000
     10154      3385  TIP3      H1             -0.3200683614       10.6901943859       20.7409453451  W2        3603            0.0000000000
     10155      3385  TIP3      H2              0.7230816386       11.7464943859       21.0374853451  W2        3603            0.0000000000
     10156      3386  TIP3      OH2             2.4361116386       12.0763843859       21.4201453451  W2        3604            0.0000000000
     10157      3386  TIP3      H1              2.6486816386       11.1882843859       21.1332353451  W2        3604            0.0000000000
     10158      3386  TIP3      H2              2.5006216386       12.0421543859       22.3745453451  W2        3604            0.0000000000
     10159      3387  TIP3      OH2             5.9444816386       -2.2595556141       20.5644753451  W2        3605            0.0000000000
     10160      3387  TIP3      H1              5.2701616386       -2.8889956141       20.8200553451  W2        3605            0.0000000000
     10161      3387  TIP3      H2              6.5084016386       -2.7436656141       19.9612653451  W2        3605            0.0000000000
     10162      3388  TIP3      OH2            11.0872016386       -4.1521556141       20.6771853451  W2        3606            0.0000000000
     10163      3388  TIP3      H1             11.6909616386       -3.6046156141       20.1752853451  W2        3606            0.0000000000
     10164      3388  TIP3      H2             10.2174016386       -3.8331156141       20.4365953451  W2        3606            0.0000000000
     10165      3389  TIP3      OH2            12.8142416386       -3.0132856141       19.0102753451  W2        3607            0.0000000000
     10166      3389  TIP3      H1             13.4259916386       -3.5277156141       18.4836353451  W2        3607            0.0000000000
     10167      3389  TIP3      H2             13.1965816386       -2.1360756141       19.0337153451  W2        3607            0.0000000000
     10168      3390  TIP3      OH2            -1.7287683614       -3.6255256141       18.3864653451  W2        3608            0.0000000000
     10169      3390  TIP3      H1             -2.5057883614       -3.8600356141       17.8790553451  W2        3608            0.0000000000
     10170      3390  TIP3      H2             -1.1984083614       -4.4223156141       18.3952653451  W2        3608            0.0000000000
     10171      3391  TIP3      OH2            -2.8924283614       -3.8277156141       14.1900753451  W2        3609            0.0000000000
     10172      3391  TIP3      H1             -2.4533583614       -3.2166656141       13.5984253451  W2        3609            0.0000000000
     10173      3391  TIP3      H2             -3.5261883614       -3.2893056141       14.6640753451  W2        3609            0.0000000000
     10174      3392  TIP3      OH2             2.8504916386       -3.6988156141       18.1997753451  W2        3610            0.0000000000
     10175      3392  TIP3      H1              3.7248316386       -3.3103856141       18.1702053451  W2        3610            0.0000000000
     10176      3392  TIP3      H2              2.7145716386       -3.9140356141       19.1224953451  W2        3610            0.0000000000
     10177      3393  TIP3      OH2             8.4073316386       -3.6688356141       19.8489453451  W2        3611            0.0000000000
     10178      3393  TIP3      H1              8.4834916386       -3.5736756141       18.8995453451  W2        3611            0.0000000000
     10179      3393  TIP3      H2              8.1322516386       -4.5765456141       19.9778553451  W2        3611            0.0000000000
     10180      3394  TIP3      OH2             9.7605916386       -3.6430556141       15.5414453451  W2        3612            0.0000000000
     10181      3394  TIP3      H1              9.0577016386       -3.0281356141       15.3315853451  W2        3612            0.0000000000
     10182      3394  TIP3      H2              9.3157316386       -4.4803856141       15.6725353451  W2        3612            0.0000000000
     10183      3395  TIP3      OH2            -2.9914783614       12.1205043859       15.0875853451  W2        3613            0.0000000000
     10184      3395  TIP3      H1             -3.6764883614       12.0823943859       14.4200953451  W2        3613            0.0000000000
     10185      3395  TIP3      H2             -2.9877583614       13.0332643859       15.3757953451  W2        3613            0.0000000000
     10186      3396  TIP3      OH2            -1.0315183614       -1.9115656141       12.6324853451  W2        3614            0.0000000000
     10187      3396  TIP3      H1             -0.5401783614       -2.5413256141       12.1050353451  W2        3614            0.0000000000
     10188      3396  TIP3      H2             -0.4078883614       -1.6156256141       13.2956053451  W2        3614            0.0000000000
     10189      3397  TIP3      OH2             3.9944916386       -1.6184156141       15.0895353451  W2        3615            0.0000000000
     10190      3397  TIP3      H1              4.1726216386       -2.2650956141       15.7723953451  W2        3615            0.0000000000
     10191      3397  TIP3      H2              3.9411116386       -0.7846456141       15.5566453451  W2        3615            0.0000000000
     10192      3398  TIP3      OH2             5.8728716386       13.3299943859       13.4852053451  W2        3616            0.0000000000
     10193      3398  TIP3      H1              6.7388916386       13.6967343859       13.3070253451  W2        3616            0.0000000000
     10194      3398  TIP3      H2              5.6261516386       12.8907943859       12.6712853451  W2        3616            0.0000000000
     10195      3399  TIP3      OH2            12.5818316386       12.8930243859       16.1643153451  W2        3617            0.0000000000
     10196      3399  TIP3      H1             12.3875416386       12.1452343859       15.5992753451  W2        3617            0.0000000000
     10197      3399  TIP3      H2             12.5428416386       13.6510343859       15.5811053451  W2        3617            0.0000000000
     10198      3400  TIP3      OH2            -1.1733583614       13.0405843859       12.1127953451  W2        3620            0.0000000000
     10199      3400  TIP3      H1             -1.4408983614       13.3268743859       12.9861053451  W2        3620            0.0000000000
     10200      3400  TIP3      H2             -0.4020983614       12.4945043859       12.2650453451  W2        3620            0.0000000000
     10201      3401  TIP3      OH2            17.5071216386        4.3999843859       23.3570253451  W2        3623            0.0000000000
     10202      3401  TIP3      H1             17.5483316386        3.7743143859       24.0802653451  W2        3623            0.0000000000
     10203      3401  TIP3      H2             18.2098916386        5.0238443859       23.5390653451  W2        3623            0.0000000000
     10204      3402  TIP3      OH2            18.4304316386        8.8498743859       21.8919353451  W2        3624            0.0000000000
     10205      3402  TIP3      H1             18.0609516386        8.0479243859       21.5223653451  W2        3624            0.0000000000
     10206      3402  TIP3      H2             19.3715416386        8.6813643859       21.9382753451  W2        3624            0.0000000000
     10207      3403  TIP3      OH2            15.0404816386        2.5101343859       17.2848153451  W2        3625            0.0000000000
     10208      3403  TIP3      H1             14.5928216386        3.3560043859       17.2664653451  W2        3625            0.0000000000
     10209      3403  TIP3      H2             14.4796016386        1.9305543859       16.7693253451  W2        3625            0.0000000000
     10210      3404  TIP3      OH2            15.7510916386        4.6720943859       19.4106153451  W2        3626            0.0000000000
     10211      3404  TIP3      H1             15.9644416386        3.9022543859       19.9379153451  W2        3626            0.0000000000
     10212      3404  TIP3      H2             16.4888516386        4.7617643859       18.8073753451  W2        3626            0.0000000000
     10213      3405  TIP3      OH2            19.8235916386       -0.2862056141       19.7700953451  W2        3627            0.0000000000
     10214      3405  TIP3      H1             19.8667016386        0.5736443859       19.3517253451  W2        3627            0.0000000000
     10215      3405  TIP3      H2             19.3660016386       -0.8387356141       19.1364153451  W2        3627            0.0000000000
     10216      3406  TIP3      OH2            16.4437416386        2.1103743859       20.5322353451  W2        3628            0.0000000000
     10217      3406  TIP3      H1             17.0974016386        1.5605443859       20.9642453451  W2        3628            0.0000000000
     10218      3406  TIP3      H2             16.4676716386        1.8362743859       19.6154353451  W2        3628            0.0000000000
     10219      3407  TIP3      OH2            21.6001916386        3.6605043859       19.7473853451  W2        3629            0.0000000000
     10220      3407  TIP3      H1             22.2162916386        3.1340443859       20.2567853451  W2        3629            0.0000000000
     10221      3407  TIP3      H2             21.0140716386        3.0203743859       19.3437453451  W2        3629            0.0000000000
     10222      3408  TIP3      OH2            18.6337816386       -1.3683656141       23.8441753451  W2        3630            0.0000000000
     10223      3408  TIP3      H1             18.4149516386       -0.8383056141       23.0777753451  W2        3630            0.0000000000
     10224      3408  TIP3      H2             17.9658716386       -1.1418156141       24.4913153451  W2        3630            0.0000000000
     10225      3409  TIP3      OH2            21.2029216386        6.3072043859       24.1315453451  W2        3631            0.0000000000
     10226      3409  TIP3      H1             20.4628316386        6.9053543859       24.2350653451  W2        3631            0.0000000000
     10227      3409  TIP3      H2             21.9168716386        6.8611643859       23.8159053451  W2        3631            0.0000000000
     10228      3410  TIP3      OH2            18.2275116386        0.5238143859       21.7963953451  W2        3632            0.0000000000
     10229      3410  TIP3      H1             18.8411416386        1.1565743859       22.1696353451  W2        3632            0.0000000000
     10230      3410  TIP3      H2             18.7395816386        0.0513143859       21.1400853451  W2        3632            0.0000000000
     10231      3411  TIP3      OH2            19.6103516386        8.2715043859       24.9186953451  W2        3633            0.0000000000
     10232      3411  TIP3      H1             19.6051116386        9.1508543859       24.5406253451  W2        3633            0.0000000000
     10233      3411  TIP3      H2             18.7567616386        8.1879143859       25.3436853451  W2        3633            0.0000000000
     10234      3412  TIP3      OH2            15.7314416386        7.9422943859       15.7006253451  W2        3634            0.0000000000
     10235      3412  TIP3      H1             15.4595316386        8.1713943859       14.8119153451  W2        3634            0.0000000000
     10236      3412  TIP3      H2             15.7770116386        8.7801743859       16.1611553451  W2        3634            0.0000000000
     10237      3413  TIP3      OH2            22.6602516386       -4.0628556141       21.2966653451  W2        3635            0.0000000000
     10238      3413  TIP3      H1             22.5426716386       -5.0112556141       21.2424953451  W2        3635            0.0000000000
     10239      3413  TIP3      H2             21.8052616386       -3.7302456141       21.5697753451  W2        3635            0.0000000000
     10240      3414  TIP3      OH2            19.9778816386        5.6146543859       18.6313353451  W2        3636            0.0000000000
     10241      3414  TIP3      H1             19.6474016386        5.2439943859       17.8130353451  W2        3636            0.0000000000
     10242      3414  TIP3      H2             20.5662916386        4.9440543859       18.9781653451  W2        3636            0.0000000000
     10243      3415  TIP3      OH2            21.3446316386        9.0427143859       21.3125553451  W2        3637            0.0000000000
     10244      3415  TIP3      H1             21.2497616386        8.4640243859       20.5560153451  W2        3637            0.0000000000
     10245      3415  TIP3      H2             22.0739916386        8.6712843859       21.8088353451  W2        3637            0.0000000000
     10246      3416  TIP3      OH2            20.3444316386        4.3832143859       22.2648353451  W2        3638            0.0000000000
     10247      3416  TIP3      H1             20.9096816386        4.5046343859       21.5019553451  W2        3638            0.0000000000
     10248      3416  TIP3      H2             20.6633216386        5.0207143859       22.9036853451  W2        3638            0.0000000000
     10249      3417  TIP3      OH2            18.9681516386        4.6840843859       16.2206153451  W2        3642            0.0000000000
     10250      3417  TIP3      H1             18.6762816386        5.4522543859       15.7297453451  W2        3642            0.0000000000
     10251      3417  TIP3      H2             18.2936716386        4.0247043859       16.0577553451  W2        3642            0.0000000000
     10252      3418  TIP3      OH2            15.0611616386        7.0470043859       25.0355953451  W2        3643            0.0000000000
     10253      3418  TIP3      H1             14.5600016386        7.0189443859       24.2205653451  W2        3643            0.0000000000
     10254      3418  TIP3      H2             15.0665316386        6.1413243859       25.3453253451  W2        3643            0.0000000000
     10255      3419  TIP3      OH2            14.8114316386        9.8273843859       21.9196153451  W2        3644            0.0000000000
     10256      3419  TIP3      H1             15.7574916386        9.6830843859       21.9005653451  W2        3644            0.0000000000
     10257      3419  TIP3      H2             14.6990616386       10.6116643859       22.4567353451  W2        3644            0.0000000000
     10258      3420  TIP3      OH2            18.0556416386       12.6283443859       18.0650853451  W2        3645            0.0000000000
     10259      3420  TIP3      H1             18.2076816386       12.2803843859       18.9437353451  W2        3645            0.0000000000
     10260      3420  TIP3      H2             17.2046816386       12.2720743859       17.8098053451  W2        3645            0.0000000000
     10261      3421  TIP3      OH2            17.3102116386        8.3705443859       26.0788753451  W2        3646            0.0000000000
     10262      3421  TIP3      H1             17.5263416386        8.0091043859       26.9384553451  W2        3646            0.0000000000
     10263      3421  TIP3      H2             16.4546816386        7.9959243859       25.8692253451  W2        3646            0.0000000000
     10264      3422  TIP3      OH2            19.9290116386       -3.1594056141       22.0742953451  W2        3647            0.0000000000
     10265      3422  TIP3      H1             19.0673816386       -3.2465856141       21.6665853451  W2        3647            0.0000000000
     10266      3422  TIP3      H2             19.9065816386       -2.3033956141       22.5020553451  W2        3647            0.0000000000
     10267      3423  TIP3      OH2            20.0200216386        1.8060443859       23.1693153451  W2        3648            0.0000000000
     10268      3423  TIP3      H1             19.3782316386        1.7657743859       23.8783253451  W2        3648            0.0000000000
     10269      3423  TIP3      H2             20.0572216386        2.7325143859       22.9316153451  W2        3648            0.0000000000
     10270      3424  TIP3      OH2            20.0169316386        2.0270543859       18.0813153451  W2        3649            0.0000000000
     10271      3424  TIP3      H1             19.1242216386        1.6866643859       18.0226953451  W2        3649            0.0000000000
     10272      3424  TIP3      H2             20.4675916386        1.6501443859       17.3256353451  W2        3649            0.0000000000
     10273      3425  TIP3      OH2            17.7700716386        2.1263943859       25.0365153451  W2        3650            0.0000000000
     10274      3425  TIP3      H1             17.7320116386        2.5265543859       25.9052253451  W2        3650            0.0000000000
     10275      3425  TIP3      H2             17.2791816386        1.3096343859       25.1268053451  W2        3650            0.0000000000
     10276      3426  TIP3      OH2            21.1358116386       -0.4993756141       11.8351153451  W2        3651            0.0000000000
     10277      3426  TIP3      H1             20.7048816386       -0.9443656141       12.5648553451  W2        3651            0.0000000000
     10278      3426  TIP3      H2             20.4176816386       -0.1277456141       11.3228653451  W2        3651            0.0000000000
     10279      3427  TIP3      OH2            14.3781516386       -0.7574256141       18.8869853451  W2        3652            0.0000000000
     10280      3427  TIP3      H1             15.0089216386       -0.7862156141       19.6063753451  W2        3652            0.0000000000
     10281      3427  TIP3      H2             14.8275816386       -1.1825556141       18.1565753451  W2        3652            0.0000000000
     10282      3428  TIP3      OH2            15.6523616386       -0.0112256141       14.3110253451  W2        3653            0.0000000000
     10283      3428  TIP3      H1             16.1265316386        0.5797643859       13.7261153451  W2        3653            0.0000000000
     10284      3428  TIP3      H2             14.9350016386        0.5190643859       14.6580353451  W2        3653            0.0000000000
     10285      3429  TIP3      OH2            22.5984616386       -0.5451956141       19.1677253451  W2        3654            0.0000000000
     10286      3429  TIP3      H1             21.6875716386       -0.4885156141       19.4563253451  W2        3654            0.0000000000
     10287      3429  TIP3      H2             23.1037516386       -0.6056456141       19.9784453451  W2        3654            0.0000000000
     10288      3430  TIP3      OH2            17.4268016386        1.0834343859       17.9944853451  W2        3655            0.0000000000
     10289      3430  TIP3      H1             16.5376016386        1.1829843859       17.6544453451  W2        3655            0.0000000000
     10290      3430  TIP3      H2             17.7232916386        0.2417343859       17.6482753451  W2        3655            0.0000000000
     10291      3431  TIP3      OH2            21.0799816386        1.0836943859       15.6509453451  W2        3656            0.0000000000
     10292      3431  TIP3      H1             22.0115316386        1.2126943859       15.8292553451  W2        3656            0.0000000000
     10293      3431  TIP3      H2             20.8650116386        1.7531243859       15.0014153451  W2        3656            0.0000000000
     10294      3432  TIP3      OH2            19.7540016386        2.2779143859       13.2175553451  W2        3657            0.0000000000
     10295      3432  TIP3      H1             19.2115116386        1.8982943859       12.5263153451  W2        3657            0.0000000000
     10296      3432  TIP3      H2             20.5874916386        2.4723843859       12.7889653451  W2        3657            0.0000000000
     10297      3433  TIP3      OH2            18.9204016386       -1.6212856141       17.4731653451  W2        3659            0.0000000000
     10298      3433  TIP3      H1             18.6033516386       -2.5237556141       17.4377053451  W2        3659            0.0000000000
     10299      3433  TIP3      H2             19.7018116386       -1.6195456141       16.9203253451  W2        3659            0.0000000000
     10300      3434  TIP3      OH2            22.5450216386        0.6307143859       23.4687253451  W2        3660            0.0000000000
     10301      3434  TIP3      H1             21.7095516386        1.0846643859       23.5789653451  W2        3660            0.0000000000
     10302      3434  TIP3      H2             23.0690816386        0.9065643859       24.2207153451  W2        3660            0.0000000000
     10303      3435  TIP3      OH2            23.0892816386        6.8434843859       15.1533653451  W2        3661            0.0000000000
     10304      3435  TIP3      H1             22.3443816386        6.3360143859       14.8311553451  W2        3661            0.0000000000
     10305      3435  TIP3      H2             22.9550016386        6.8922843859       16.0998453451  W2        3661            0.0000000000
     10306      3436  TIP3      OH2            18.2141116386        6.1384843859       20.9231553451  W2        3662            0.0000000000
     10307      3436  TIP3      H1             18.9588316386        6.1360543859       20.3218053451  W2        3662            0.0000000000
     10308      3436  TIP3      H2             18.2917716386        5.3148643859       21.4046653451  W2        3662            0.0000000000
     10309      3437  TIP3      OH2            20.5890516386        9.6563043859       18.3273053451  W2        3665            0.0000000000
     10310      3437  TIP3      H1             21.1162716386       10.4297443859       18.1271853451  W2        3665            0.0000000000
     10311      3437  TIP3      H2             19.7089016386        9.8812243859       18.0257053451  W2        3665            0.0000000000
     10312      3438  TIP3      OH2            16.3438216386        4.5187143859       12.9145453451  W2        3666            0.0000000000
     10313      3438  TIP3      H1             16.9598116386        5.1454343859       13.2940253451  W2        3666            0.0000000000
     10314      3438  TIP3      H2             15.4820816386        4.8346943859       13.1861953451  W2        3666            0.0000000000
     10315      3439  TIP3      OH2            22.0162816386        7.3192943859       17.9037353451  W2        3667            0.0000000000
     10316      3439  TIP3      H1             21.7752816386        8.2447343859       17.9452653451  W2        3667            0.0000000000
     10317      3439  TIP3      H2             21.2756416386        6.8604243859       18.3001253451  W2        3667            0.0000000000
     10318      3440  TIP3      OH2            22.5309416386       11.4686543859       24.2188453451  W2        3668            0.0000000000
     10319      3440  TIP3      H1             22.8934116386       12.3232143859       23.9852853451  W2        3668            0.0000000000
     10320      3440  TIP3      H2             23.0624616386       11.1768143859       24.9594753451  W2        3668            0.0000000000
     10321      3441  TIP3      OH2            20.6993616386       12.3410543859       17.4489553451  W2        3669            0.0000000000
     10322      3441  TIP3      H1             19.7494116386       12.4467943859       17.5002853451  W2        3669            0.0000000000
     10323      3441  TIP3      H2             21.0511716386       13.1617943859       17.7937053451  W2        3669            0.0000000000
     10324      3442  TIP3      OH2            16.8560316386       -0.6475556141       25.7961453451  W2        3670            0.0000000000
     10325      3442  TIP3      H1             15.9632616386       -0.3090156141       25.7285453451  W2        3670            0.0000000000
     10326      3442  TIP3      H2             16.7573116386       -1.5029456141       26.2142253451  W2        3670            0.0000000000
     10327      3443  TIP3      OH2            16.5072316386       11.1568843859       24.2310853451  W2        3671            0.0000000000
     10328      3443  TIP3      H1             16.7242616386       10.2251243859       24.2000553451  W2        3671            0.0000000000
     10329      3443  TIP3      H2             16.7535816386       11.4313843859       25.1143653451  W2        3671            0.0000000000
     10330      3444  TIP3      OH2            22.3686916386        9.6083843859       11.4403053451  W2        3672            0.0000000000
     10331      3444  TIP3      H1             22.6076716386        8.8601943859       10.8931953451  W2        3672            0.0000000000
     10332      3444  TIP3      H2             22.0998216386        9.2205543859       12.2730853451  W2        3672            0.0000000000
     10333      3445  TIP3      OH2            21.3057516386        9.1787643859       13.8965653451  W2        3673            0.0000000000
     10334      3445  TIP3      H1             21.4525516386        8.6587443859       14.6866553451  W2        3673            0.0000000000
     10335      3445  TIP3      H2             21.3029216386       10.0855243859       14.2031553451  W2        3673            0.0000000000
     10336      3446  TIP3      OH2            17.7588616386        6.4310943859       14.4071053451  W2        3674            0.0000000000
     10337      3446  TIP3      H1             17.0727916386        6.7833443859       14.9740753451  W2        3674            0.0000000000
     10338      3446  TIP3      H2             18.2816516386        7.1940543859       14.1605353451  W2        3674            0.0000000000
     10339      3447  TIP3      OH2            21.3817816386       11.9198443859       14.6276753451  W2        3675            0.0000000000
     10340      3447  TIP3      H1             21.5426516386       12.7195943859       14.1269353451  W2        3675            0.0000000000
     10341      3447  TIP3      H2             21.1845616386       12.2264443859       15.5127353451  W2        3675            0.0000000000
     10342      3448  TIP3      OH2            20.1162216386       -1.3822356141       14.2434353451  W2        3676            0.0000000000
     10343      3448  TIP3      H1             20.0327016386       -0.4939256141       14.5900753451  W2        3676            0.0000000000
     10344      3448  TIP3      H2             21.0062516386       -1.6475656141       14.4751153451  W2        3676            0.0000000000
     10345      3449  TIP3      OH2            18.3747516386        9.0449843859       13.3038853451  W2        3677            0.0000000000
     10346      3449  TIP3      H1             18.9669016386        9.7444643859       13.5801253451  W2        3677            0.0000000000
     10347      3449  TIP3      H2             18.8340516386        8.6119343859       12.5843453451  W2        3677            0.0000000000
     10348      3450  TIP3      OH2            16.6906716386        1.7092843859       12.4198253451  W2        3678            0.0000000000
     10349      3450  TIP3      H1             16.6459316386        2.6485943859       12.5985253451  W2        3678            0.0000000000
     10350      3450  TIP3      H2             15.8029916386        1.4737743859       12.1500353451  W2        3678            0.0000000000
     10351      3451  TIP3      OH2            17.4988716386       -3.5090556141       21.0929253451  W2        3679            0.0000000000
     10352      3451  TIP3      H1             17.2698516386       -3.4498056141       20.1654253451  W2        3679            0.0000000000
     10353      3451  TIP3      H2             17.0562116386       -4.3005056141       21.3993353451  W2        3679            0.0000000000
     10354      3452  TIP3      OH2            16.4292016386       10.4316543859       17.2535053451  W2        3680            0.0000000000
     10355      3452  TIP3      H1             15.5970616386       10.9039243859       17.2806453451  W2        3680            0.0000000000
     10356      3452  TIP3      H2             16.9750316386       10.9414143859       16.6548153451  W2        3680            0.0000000000
     10357      3453  TIP3      OH2            19.9658916386        7.1980043859       11.6701953451  W2        3684            0.0000000000
     10358      3453  TIP3      H1             20.0303016386        6.4039643859       12.2008353451  W2        3684            0.0000000000
     10359      3453  TIP3      H2             20.6188116386        7.0792843859       10.9803953451  W2        3684            0.0000000000
     10360      3454  TIP3      OH2            21.1152716386        5.1706243859       13.9759953451  W2        3687            0.0000000000
     10361      3454  TIP3      H1             20.6554716386        4.6864543859       14.6618453451  W2        3687            0.0000000000
     10362      3454  TIP3      H2             21.3701416386        4.5021643859       13.3400453451  W2        3687            0.0000000000
     10363      3455  TIP3      OH2            22.1863116386        3.4138043859       12.2383153451  W2        3689            0.0000000000
     10364      3455  TIP3      H1             22.0058116386        3.2589243859       11.3111453451  W2        3689            0.0000000000
     10365      3455  TIP3      H2             23.1363616386        3.5216743859       12.2831053451  W2        3689            0.0000000000
     10366      3456  TIP3      OH2            21.1561416386       -1.2120056141       24.9070053451  W2        3691            0.0000000000
     10367      3456  TIP3      H1             21.6918916386       -0.7603356141       24.2549353451  W2        3691            0.0000000000
     10368      3456  TIP3      H2             20.3041016386       -1.3200256141       24.4844153451  W2        3691            0.0000000000
     10369      3457  TIP3      OH2            22.7379816386        4.2276143859       25.1465253451  W2        3692            0.0000000000
     10370      3457  TIP3      H1             23.4884616386        4.0713643859       24.5733053451  W2        3692            0.0000000000
     10371      3457  TIP3      H2             22.3988116386        5.0792743859       24.8710753451  W2        3692            0.0000000000
     10372      3458  TIP3      OH2            21.9616916386       -3.7554356141       25.3383653451  W2        3694            0.0000000000
     10373      3458  TIP3      H1             21.8636516386       -2.8091156141       25.2329853451  W2        3694            0.0000000000
     10374      3458  TIP3      H2             21.2193116386       -4.1280556141       24.8627153451  W2        3694            0.0000000000
     10375      3459  TIP3      OH2            22.0834816386       14.1041743859       13.2396753451  W2        3699            0.0000000000
     10376      3459  TIP3      H1             23.0165516386       14.2620443859       13.3835153451  W2        3699            0.0000000000
     10377      3459  TIP3      H2             21.8193616386       14.7794743859       12.6148253451  W2        3699            0.0000000000
     10378      3460  TIP3      OH2            15.6519716386        8.7405543859       12.7224853451  W2        3700            0.0000000000
     10379      3460  TIP3      H1             16.5658916386        8.8194443859       12.9958753451  W2        3700            0.0000000000
     10380      3460  TIP3      H2             15.6592816386        8.0535143859       12.0560453451  W2        3700            0.0000000000
     10381      3461  TIP3      OH2            14.3010316386       14.1334043859       17.7998753451  W2        3701            0.0000000000
     10382      3461  TIP3      H1             13.6537416386       13.6715743859       17.2669953451  W2        3701            0.0000000000
     10383      3461  TIP3      H2             14.6554916386       13.4617343859       18.3824953451  W2        3701            0.0000000000
     10384      3462  TIP3      OH2            15.1709516386       12.2141043859       19.6044953451  W2        3702            0.0000000000
     10385      3462  TIP3      H1             14.8366316386       11.3338343859       19.7765153451  W2        3702            0.0000000000
     10386      3462  TIP3      H2             15.3931916386       12.5596043859       20.4690553451  W2        3702            0.0000000000
     10387      3463  TIP3      OH2            15.2509016386        5.2896443859       22.0559853451  W2        3703            0.0000000000
     10388      3463  TIP3      H1             15.4351916386        5.2078143859       21.1202753451  W2        3703            0.0000000000
     10389      3463  TIP3      H2             16.1001916386        5.1653443859       22.4796253451  W2        3703            0.0000000000
     10390      3464  TIP3      OH2            16.0696316386       -1.1276956141       21.0881553451  W2        3705            0.0000000000
     10391      3464  TIP3      H1             16.5147916386       -1.9194456141       21.3901253451  W2        3705            0.0000000000
     10392      3464  TIP3      H2             16.5359316386       -0.4111756141       21.5187153451  W2        3705            0.0000000000
     10393      3465  TIP3      OH2            14.3736616386        1.8716043859       22.1571753451  W2        3706            0.0000000000
     10394      3465  TIP3      H1             14.8656416386        1.6506543859       21.3663753451  W2        3706            0.0000000000
     10395      3465  TIP3      H2             14.7357516386        2.7119443859       22.4381253451  W2        3706            0.0000000000
     10396      3466  TIP3      OH2            14.6873116386       -1.8704856141       16.2114153451  W2        3707            0.0000000000
     10397      3466  TIP3      H1             13.7621516386       -1.6618256141       16.0819653451  W2        3707            0.0000000000
     10398      3466  TIP3      H2             15.1413016386       -1.3864056141       15.5216453451  W2        3707            0.0000000000
     10399      3467  TIP3      OH2            14.6508516386       -3.1325856141       24.5556653451  W2        3708            0.0000000000
     10400      3467  TIP3      H1             13.9859016386       -3.3785556141       25.1987553451  W2        3708            0.0000000000
     10401      3467  TIP3      H2             14.2079816386       -2.5105456141       23.9784653451  W2        3708            0.0000000000
     10402      3468  TIP3      OH2            19.7970716386       11.0169443859       24.9586453451  W2        3710            0.0000000000
     10403      3468  TIP3      H1             19.3721816386       11.8267943859       24.6761053451  W2        3710            0.0000000000
     10404      3468  TIP3      H2             20.7013516386       11.1023543859       24.6566253451  W2        3710            0.0000000000
     10405      3469  TIP3      OH2            17.1987416386       14.2733343859       25.0061753451  W2        3711            0.0000000000
     10406      3469  TIP3      H1             16.4783816386       14.7134343859       24.5549453451  W2        3711            0.0000000000
     10407      3469  TIP3      H2             16.8331416386       14.0228043859       25.8545753451  W2        3711            0.0000000000
     10408      3470  TIP3      OH2            19.6660016386       13.8737243859       24.0358953451  W2        3712            0.0000000000
     10409      3470  TIP3      H1             18.8012216386       13.9455743859       24.4399053451  W2        3712            0.0000000000
     10410      3470  TIP3      H2             19.6109016386       14.4204543859       23.2521453451  W2        3712            0.0000000000
     10411      3471  TIP3      OH2            16.6135516386       12.8965843859       21.9163553451  W2        3713            0.0000000000
     10412      3471  TIP3      H1             16.5951516386       12.4710943859       22.7735853451  W2        3713            0.0000000000
     10413      3471  TIP3      H2             17.4183416386       12.5780843859       21.5075753451  W2        3713            0.0000000000
     10414      3472  TIP3      OH2            18.7548616386       11.6064543859       20.5713453451  W2        3714            0.0000000000
     10415      3472  TIP3      H1             18.5359316386       10.6901943859       20.7409453451  W2        3714            0.0000000000
     10416      3472  TIP3      H2             19.5790816386       11.7464943859       21.0374853451  W2        3714            0.0000000000
     10417      3473  TIP3      OH2            21.2921116386       12.0763843859       21.4201453451  W2        3715            0.0000000000
     10418      3473  TIP3      H1             21.5046816386       11.1882843859       21.1332353451  W2        3715            0.0000000000
     10419      3473  TIP3      H2             21.3566216386       12.0421543859       22.3745453451  W2        3715            0.0000000000
     10420      3474  TIP3      OH2            17.1272316386       -3.6255256141       18.3864653451  W2        3716            0.0000000000
     10421      3474  TIP3      H1             16.3502116386       -3.8600356141       17.8790553451  W2        3716            0.0000000000
     10422      3474  TIP3      H2             17.6575916386       -4.4223156141       18.3952653451  W2        3716            0.0000000000
     10423      3475  TIP3      OH2            15.9635716386       -3.8277156141       14.1900753451  W2        3717            0.0000000000
     10424      3475  TIP3      H1             16.4026416386       -3.2166656141       13.5984253451  W2        3717            0.0000000000
     10425      3475  TIP3      H2             15.3298116386       -3.2893056141       14.6640753451  W2        3717            0.0000000000
     10426      3476  TIP3      OH2            21.7064916386       -3.6988156141       18.1997753451  W2        3718            0.0000000000
     10427      3476  TIP3      H1             22.5808316386       -3.3103856141       18.1702053451  W2        3718            0.0000000000
     10428      3476  TIP3      H2             21.5705716386       -3.9140356141       19.1224953451  W2        3718            0.0000000000
     10429      3477  TIP3      OH2            15.8645216386       12.1205043859       15.0875853451  W2        3719            0.0000000000
     10430      3477  TIP3      H1             15.1795116386       12.0823943859       14.4200953451  W2        3719            0.0000000000
     10431      3477  TIP3      H2             15.8682416386       13.0332643859       15.3757953451  W2        3719            0.0000000000
     10432      3478  TIP3      OH2            17.8244816386       -1.9115656141       12.6324853451  W2        3720            0.0000000000
     10433      3478  TIP3      H1             18.3158216386       -2.5413256141       12.1050353451  W2        3720            0.0000000000
     10434      3478  TIP3      H2             18.4481116386       -1.6156256141       13.2956053451  W2        3720            0.0000000000
     10435      3479  TIP3      OH2            22.8504916386       -1.6184156141       15.0895353451  W2        3721            0.0000000000
     10436      3479  TIP3      H1             23.0286216386       -2.2650956141       15.7723953451  W2        3721            0.0000000000
     10437      3479  TIP3      H2             22.7971116386       -0.7846456141       15.5566453451  W2        3721            0.0000000000
     10438      3480  TIP3      OH2            17.6826416386       13.0405843859       12.1127953451  W2        3724            0.0000000000
     10439      3480  TIP3      H1             17.4151016386       13.3268743859       12.9861053451  W2        3724            0.0000000000
     10440      3480  TIP3      H2             18.4539016386       12.4945043859       12.2650453451  W2        3724            0.0000000000
     10441      3481  TIP3      OH2           -20.2048783614       23.2559843859       23.3570253451  W2        3725            0.0000000000
     10442      3481  TIP3      H1            -20.1636683614       22.6303143859       24.0802653451  W2        3725            0.0000000000
     10443      3481  TIP3      H2            -19.5021083614       23.8798443859       23.5390653451  W2        3725            0.0000000000
     10444      3482  TIP3      OH2           -22.6715183614       21.3661343859       17.2848153451  W2        3726            0.0000000000
     10445      3482  TIP3      H1            -23.1191783614       22.2120043859       17.2664653451  W2        3726            0.0000000000
     10446      3482  TIP3      H2            -23.2323983614       20.7865543859       16.7693253451  W2        3726            0.0000000000
     10447      3483  TIP3      OH2            -5.5209583614       17.6754443859       23.0307553451  W2        3727            0.0000000000
     10448      3483  TIP3      H1             -5.4717383614       18.2855643859       23.7666653451  W2        3727            0.0000000000
     10449      3483  TIP3      H2             -5.0954483614       18.1365343859       22.3078653451  W2        3727            0.0000000000
     10450      3484  TIP3      OH2           -11.0432383614       20.4681543859       22.4976153451  W2        3728            0.0000000000
     10451      3484  TIP3      H1            -10.9006483614       19.5218543859       22.5177753451  W2        3728            0.0000000000
     10452      3484  TIP3      H2            -11.1493383614       20.6751343859       21.5691053451  W2        3728            0.0000000000
     10453      3485  TIP3      OH2           -17.8884083614       18.5697943859       19.7700953451  W2        3729            0.0000000000
     10454      3485  TIP3      H1            -17.8452983614       19.4296443859       19.3517253451  W2        3729            0.0000000000
     10455      3485  TIP3      H2            -18.3459983614       18.0172643859       19.1364153451  W2        3729            0.0000000000
     10456      3486  TIP3      OH2           -10.1661383614       18.7003543859       18.1709253451  W2        3730            0.0000000000
     10457      3486  TIP3      H1             -9.5197083614       18.3716743859       18.7956853451  W2        3730            0.0000000000
     10458      3486  TIP3      H2             -9.6561983614       19.2182543859       17.5480653451  W2        3730            0.0000000000
     10459      3487  TIP3      OH2           -21.2682583614       20.9663743859       20.5322353451  W2        3731            0.0000000000
     10460      3487  TIP3      H1            -20.6145983614       20.4165443859       20.9642453451  W2        3731            0.0000000000
     10461      3487  TIP3      H2            -21.2443283614       20.6922743859       19.6154353451  W2        3731            0.0000000000
     10462      3488  TIP3      OH2           -16.1118083614       22.5165043859       19.7473853451  W2        3732            0.0000000000
     10463      3488  TIP3      H1            -15.4957083614       21.9900443859       20.2567853451  W2        3732            0.0000000000
     10464      3488  TIP3      H2            -16.6979283614       21.8763743859       19.3437453451  W2        3732            0.0000000000
     10465      3489  TIP3      OH2            -5.1294983614       19.1533643859       25.2667353451  W2        3733            0.0000000000
     10466      3489  TIP3      H1             -5.8180383614       19.8114343859       25.1713953451  W2        3733            0.0000000000
     10467      3489  TIP3      H2             -5.1140383614       18.9561543859       26.2032753451  W2        3733            0.0000000000
     10468      3490  TIP3      OH2           -19.0782183614       17.4876343859       23.8441753451  W2        3734            0.0000000000
     10469      3490  TIP3      H1            -19.2970483614       18.0176943859       23.0777753451  W2        3734            0.0000000000
     10470      3490  TIP3      H2            -19.7461283614       17.7141843859       24.4913153451  W2        3734            0.0000000000
     10471      3491  TIP3      OH2            -8.4022983614       17.9912843859       20.1515153451  W2        3735            0.0000000000
     10472      3491  TIP3      H1             -8.6174983614       17.2256243859       20.6841153451  W2        3735            0.0000000000
     10473      3491  TIP3      H2             -7.7465583614       18.4637443859       20.6643653451  W2        3735            0.0000000000
     10474      3492  TIP3      OH2           -19.4844883614       19.3798143859       21.7963953451  W2        3736            0.0000000000
     10475      3492  TIP3      H1            -18.8708583614       20.0125743859       22.1696353451  W2        3736            0.0000000000
     10476      3492  TIP3      H2            -18.9724183614       18.9073143859       21.1400853451  W2        3736            0.0000000000
     10477      3493  TIP3      OH2            -8.0548883614       16.7064143859       23.8308653451  W2        3737            0.0000000000
     10478      3493  TIP3      H1             -8.7909683614       17.3171243859       23.7929953451  W2        3737            0.0000000000
     10479      3493  TIP3      H2             -7.3714883614       17.1213143859       23.3045053451  W2        3737            0.0000000000
     10480      3494  TIP3      OH2           -15.0517483614       14.7931443859       21.2966653451  W2        3738            0.0000000000
     10481      3494  TIP3      H1            -15.1693283614       13.8447443859       21.2424953451  W2        3738            0.0000000000
     10482      3494  TIP3      H2            -15.9067383614       15.1257543859       21.5697753451  W2        3738            0.0000000000
     10483      3495  TIP3      OH2           -12.7313383614       22.0881343859       12.8357453451  W2        3739            0.0000000000
     10484      3495  TIP3      H1            -12.0303483614       22.1108243859       13.4871453451  W2        3739            0.0000000000
     10485      3495  TIP3      H2            -12.4290483614       21.4601043859       12.1796753451  W2        3739            0.0000000000
     10486      3496  TIP3      OH2            -5.4158683614       23.0085543859       24.0906853451  W2        3740            0.0000000000
     10487      3496  TIP3      H1             -6.0684583614       23.7031143859       24.1797753451  W2        3740            0.0000000000
     10488      3496  TIP3      H2             -4.9508383614       23.2186443859       23.2808453451  W2        3740            0.0000000000
     10489      3497  TIP3      OH2            -9.4821383614       22.0142943859       25.8165353451  W2        3741            0.0000000000
     10490      3497  TIP3      H1             -9.4022283614       22.7777343859       26.3883853451  W2        3741            0.0000000000
     10491      3497  TIP3      H2            -10.0833683614       22.2935343859       25.1260453451  W2        3741            0.0000000000
     10492      3498  TIP3      OH2           -17.3675683614       23.2392143859       22.2648353451  W2        3742            0.0000000000
     10493      3498  TIP3      H1            -16.8023183614       23.3606343859       21.5019553451  W2        3742            0.0000000000
     10494      3498  TIP3      H2            -17.0486783614       23.8767143859       22.9036853451  W2        3742            0.0000000000
     10495      3499  TIP3      OH2           -10.5085383614       23.0023243859       14.4339553451  W2        3743            0.0000000000
     10496      3499  TIP3      H1             -9.9289883614       23.1523543859       15.1808453451  W2        3743            0.0000000000
     10497      3499  TIP3      H2            -10.0945383614       23.4730643859       13.7105953451  W2        3743            0.0000000000
     10498      3500  TIP3      OH2            -6.8096983614       14.7523643859       14.2469253451  W2        3744            0.0000000000
     10499      3500  TIP3      H1             -7.7096283614       14.8912643859       14.5419853451  W2        3744            0.0000000000
     10500      3500  TIP3      H2             -6.5578583614       15.5838243859       13.8450953451  W2        3744            0.0000000000
     10501      3501  TIP3      OH2           -17.7829883614       15.6965943859       22.0742953451  W2        3746            0.0000000000
     10502      3501  TIP3      H1            -18.6446183614       15.6094143859       21.6665853451  W2        3746            0.0000000000
     10503      3501  TIP3      H2            -17.8054183614       16.5526043859       22.5020553451  W2        3746            0.0000000000
     10504      3502  TIP3      OH2           -13.1202083614       15.4186343859       25.4489953451  W2        3747            0.0000000000
     10505      3502  TIP3      H1            -12.6998983614       15.0033443859       26.2020553451  W2        3747            0.0000000000
     10506      3502  TIP3      H2            -14.0532483614       15.2399643859       25.5661953451  W2        3747            0.0000000000
     10507      3503  TIP3      OH2           -13.4584783614       17.9109743859       12.7340753451  W2        3749            0.0000000000
     10508      3503  TIP3      H1            -13.7119983614       17.9301343859       13.6568853451  W2        3749            0.0000000000
     10509      3503  TIP3      H2            -13.7152683614       17.0395143859       12.4326953451  W2        3749            0.0000000000
     10510      3504  TIP3      OH2           -17.6919783614       20.6620443859       23.1693153451  W2        3750            0.0000000000
     10511      3504  TIP3      H1            -18.3337683614       20.6217743859       23.8783253451  W2        3750            0.0000000000
     10512      3504  TIP3      H2            -17.6547783614       21.5885143859       22.9316153451  W2        3750            0.0000000000
     10513      3505  TIP3      OH2           -17.6950683614       20.8830543859       18.0813153451  W2        3751            0.0000000000
     10514      3505  TIP3      H1            -18.5877783614       20.5426643859       18.0226953451  W2        3751            0.0000000000
     10515      3505  TIP3      H2            -17.2444083614       20.5061443859       17.3256353451  W2        3751            0.0000000000
     10516      3506  TIP3      OH2           -12.1595183614       21.2990843859       16.8983953451  W2        3752            0.0000000000
     10517      3506  TIP3      H1            -12.5684883614       22.1139443859       16.6068753451  W2        3752            0.0000000000
     10518      3506  TIP3      H2            -11.4388983614       21.1590943859       16.2841053451  W2        3752            0.0000000000
     10519      3507  TIP3      OH2           -11.1547483614       20.7451243859       19.7123653451  W2        3754            0.0000000000
     10520      3507  TIP3      H1            -11.3502983614       21.3508043859       18.9974253451  W2        3754            0.0000000000
     10521      3507  TIP3      H2            -10.9734883614       19.9116443859       19.2779953451  W2        3754            0.0000000000
     10522      3508  TIP3      OH2           -19.9419283614       20.9823943859       25.0365153451  W2        3755            0.0000000000
     10523      3508  TIP3      H1            -19.9799883614       21.3825543859       25.9052253451  W2        3755            0.0000000000
     10524      3508  TIP3      H2            -20.4328183614       20.1656343859       25.1268053451  W2        3755            0.0000000000
     10525      3509  TIP3      OH2           -16.5761883614       18.3566243859       11.8351153451  W2        3756            0.0000000000
     10526      3509  TIP3      H1            -17.0071183614       17.9116343859       12.5648553451  W2        3756            0.0000000000
     10527      3509  TIP3      H2            -17.2943183614       18.7282543859       11.3228653451  W2        3756            0.0000000000
     10528      3510  TIP3      OH2           -23.3338483614       18.0985743859       18.8869853451  W2        3757            0.0000000000
     10529      3510  TIP3      H1            -22.7030783614       18.0697843859       19.6063753451  W2        3757            0.0000000000
     10530      3510  TIP3      H2            -22.8844183614       17.6734443859       18.1565753451  W2        3757            0.0000000000
     10531      3511  TIP3      OH2           -22.0596383614       18.8447743859       14.3110253451  W2        3758            0.0000000000
     10532      3511  TIP3      H1            -21.5854683614       19.4357643859       13.7261153451  W2        3758            0.0000000000
     10533      3511  TIP3      H2            -22.7769983614       19.3750643859       14.6580353451  W2        3758            0.0000000000
     10534      3512  TIP3      OH2           -11.8908283614       22.3832543859       24.3836053451  W2        3759            0.0000000000
     10535      3512  TIP3      H1            -11.5673483614       21.7522243859       23.7406553451  W2        3759            0.0000000000
     10536      3512  TIP3      H2            -12.3308983614       21.8484743859       25.0443453451  W2        3759            0.0000000000
     10537      3513  TIP3      OH2           -15.1135383614       18.3108043859       19.1677253451  W2        3760            0.0000000000
     10538      3513  TIP3      H1            -16.0244283614       18.3674843859       19.4563253451  W2        3760            0.0000000000
     10539      3513  TIP3      H2            -14.6082483614       18.2503543859       19.9784453451  W2        3760            0.0000000000
     10540      3514  TIP3      OH2           -20.2851983614       19.9394343859       17.9944853451  W2        3761            0.0000000000
     10541      3514  TIP3      H1            -21.1743983614       20.0389843859       17.6544453451  W2        3761            0.0000000000
     10542      3514  TIP3      H2            -19.9887083614       19.0977343859       17.6482753451  W2        3761            0.0000000000
     10543      3515  TIP3      OH2           -16.6320183614       19.9396943859       15.6509453451  W2        3762            0.0000000000
     10544      3515  TIP3      H1            -15.7004683614       20.0686943859       15.8292553451  W2        3762            0.0000000000
     10545      3515  TIP3      H2            -16.8469883614       20.6091243859       15.0014153451  W2        3762            0.0000000000
     10546      3516  TIP3      OH2           -10.7083483614       17.5454343859       22.4319053451  W2        3763            0.0000000000
     10547      3516  TIP3      H1            -11.3851883614       17.6767443859       23.0958753451  W2        3763            0.0000000000
     10548      3516  TIP3      H2            -11.1938583614       17.3903843859       21.6216753451  W2        3763            0.0000000000
     10549      3517  TIP3      OH2           -17.9579983614       21.1339143859       13.2175553451  W2        3764            0.0000000000
     10550      3517  TIP3      H1            -18.5004883614       20.7542943859       12.5263153451  W2        3764            0.0000000000
     10551      3517  TIP3      H2            -17.1245083614       21.3283843859       12.7889653451  W2        3764            0.0000000000
     10552      3518  TIP3      OH2           -13.7935683614       21.0981043859       21.0546853451  W2        3765            0.0000000000
     10553      3518  TIP3      H1            -13.2292283614       20.5517643859       20.5076453451  W2        3765            0.0000000000
     10554      3518  TIP3      H2            -13.9412283614       20.5762943859       21.8434453451  W2        3765            0.0000000000
     10555      3519  TIP3      OH2           -18.7915983614       17.2347143859       17.4731653451  W2        3766            0.0000000000
     10556      3519  TIP3      H1            -19.1086483614       16.3322443859       17.4377053451  W2        3766            0.0000000000
     10557      3519  TIP3      H2            -18.0101883614       17.2364543859       16.9203253451  W2        3766            0.0000000000
     10558      3520  TIP3      OH2           -15.1669783614       19.4867143859       23.4687253451  W2        3767            0.0000000000
     10559      3520  TIP3      H1            -16.0024483614       19.9406643859       23.5789653451  W2        3767            0.0000000000
     10560      3520  TIP3      H2            -14.6429183614       19.7625643859       24.2207153451  W2        3767            0.0000000000
     10561      3521  TIP3      OH2           -10.7250383614       18.5134743859       13.3526253451  W2        3768            0.0000000000
     10562      3521  TIP3      H1            -11.6636183614       18.6250343859       13.2015053451  W2        3768            0.0000000000
     10563      3521  TIP3      H2            -10.4278283614       19.3701643859       13.6591953451  W2        3768            0.0000000000
     10564      3522  TIP3      OH2           -10.0066883614       20.3807443859       15.0133653451  W2        3769            0.0000000000
     10565      3522  TIP3      H1             -9.1147883614       20.2432443859       15.3324853451  W2        3769            0.0000000000
     10566      3522  TIP3      H2             -9.9503283614       21.1713543859       14.4767153451  W2        3769            0.0000000000
     10567      3523  TIP3      OH2            -5.1218183614       20.5901543859       14.7080353451  W2        3771            0.0000000000
     10568      3523  TIP3      H1             -5.6761883614       20.1939543859       14.0357853451  W2        3771            0.0000000000
     10569      3523  TIP3      H2             -5.0214583614       21.5006743859       14.4303653451  W2        3771            0.0000000000
     10570      3524  TIP3      OH2           -21.3681783614       23.3747143859       12.9145453451  W2        3772            0.0000000000
     10571      3524  TIP3      H1            -20.7521883614       24.0014343859       13.2940253451  W2        3772            0.0000000000
     10572      3524  TIP3      H2            -22.2299183614       23.6906943859       13.1861953451  W2        3772            0.0000000000
     10573      3525  TIP3      OH2           -20.8559683614       18.2084443859       25.7961453451  W2        3773            0.0000000000
     10574      3525  TIP3      H1            -21.7487383614       18.5469843859       25.7285453451  W2        3773            0.0000000000
     10575      3525  TIP3      H2            -20.9546883614       17.3530543859       26.2142253451  W2        3773            0.0000000000
     10576      3526  TIP3      OH2           -12.1216283614       17.9494743859       24.6860053451  W2        3774            0.0000000000
     10577      3526  TIP3      H1            -11.4228383614       18.0233443859       25.3359753451  W2        3774            0.0000000000
     10578      3526  TIP3      H2            -12.5024883614       17.0849743859       24.8402953451  W2        3774            0.0000000000
     10579      3527  TIP3      OH2           -11.3371383614       17.6016443859       15.7832353451  W2        3775            0.0000000000
     10580      3527  TIP3      H1            -11.1173083614       18.0731843859       14.9797753451  W2        3775            0.0000000000
     10581      3527  TIP3      H2            -10.7787383614       17.9959043859       16.4532953451  W2        3775            0.0000000000
     10582      3528  TIP3      OH2           -14.1371483614       19.3295243859       16.6180753451  W2        3776            0.0000000000
     10583      3528  TIP3      H1            -13.3248883614       19.8338443859       16.6642453451  W2        3776            0.0000000000
     10584      3528  TIP3      H2            -14.3818483614       19.1844943859       17.5320353451  W2        3776            0.0000000000
     10585      3529  TIP3      OH2           -13.6015083614       20.3157943859       25.8027353451  W2        3777            0.0000000000
     10586      3529  TIP3      H1            -13.4824783614       20.8893343859       26.5597753451  W2        3777            0.0000000000
     10587      3529  TIP3      H2            -12.9460483614       19.6277343859       25.9175153451  W2        3777            0.0000000000
     10588      3530  TIP3      OH2           -13.2534783614       16.4108243859       17.5561853451  W2        3778            0.0000000000
     10589      3530  TIP3      H1            -13.6001283614       17.0278843859       18.2006153451  W2        3778            0.0000000000
     10590      3530  TIP3      H2            -12.5947883614       16.9113943859       17.0747353451  W2        3778            0.0000000000
     10591      3531  TIP3      OH2           -17.5957783614       17.4737643859       14.2434353451  W2        3779            0.0000000000
     10592      3531  TIP3      H1            -17.6792983614       18.3620743859       14.5900753451  W2        3779            0.0000000000
     10593      3531  TIP3      H2            -16.7057483614       17.2084343859       14.4751153451  W2        3779            0.0000000000
     10594      3532  TIP3      OH2            -8.7948283614       21.9729243859       20.7334353451  W2        3781            0.0000000000
     10595      3532  TIP3      H1             -9.5923883614       21.5579443859       20.4049353451  W2        3781            0.0000000000
     10596      3532  TIP3      H2             -8.3497183614       21.2822943859       21.2244853451  W2        3781            0.0000000000
     10597      3533  TIP3      OH2           -21.0213283614       20.5652843859       12.4198253451  W2        3782            0.0000000000
     10598      3533  TIP3      H1            -21.0660683614       21.5045943859       12.5985253451  W2        3782            0.0000000000
     10599      3533  TIP3      H2            -21.9090083614       20.3297743859       12.1500353451  W2        3782            0.0000000000
     10600      3534  TIP3      OH2           -20.2131283614       15.3469443859       21.0929253451  W2        3783            0.0000000000
     10601      3534  TIP3      H1            -20.4421483614       15.4061943859       20.1654253451  W2        3783            0.0000000000
     10602      3534  TIP3      H2            -20.6557883614       14.5554943859       21.3993353451  W2        3783            0.0000000000
     10603      3535  TIP3      OH2           -15.5256883614       22.2698043859       12.2383153451  W2        3786            0.0000000000
     10604      3535  TIP3      H1            -15.7061883614       22.1149243859       11.3111453451  W2        3786            0.0000000000
     10605      3535  TIP3      H2            -14.5756383614       22.3776743859       12.2831053451  W2        3786            0.0000000000
     10606      3536  TIP3      OH2           -16.5558583614       17.6439943859       24.9070053451  W2        3788            0.0000000000
     10607      3536  TIP3      H1            -16.0201083614       18.0956643859       24.2549353451  W2        3788            0.0000000000
     10608      3536  TIP3      H2            -17.4078983614       17.5359743859       24.4844153451  W2        3788            0.0000000000
     10609      3537  TIP3      OH2           -14.9740183614       23.0836143859       25.1465253451  W2        3789            0.0000000000
     10610      3537  TIP3      H1            -14.2235383614       22.9273643859       24.5733053451  W2        3789            0.0000000000
     10611      3537  TIP3      H2            -15.3131883614       23.9352743859       24.8710753451  W2        3789            0.0000000000
     10612      3538  TIP3      OH2           -15.7503083614       15.1005643859       25.3383653451  W2        3792            0.0000000000
     10613      3538  TIP3      H1            -15.8483483614       16.0468843859       25.2329853451  W2        3792            0.0000000000
     10614      3538  TIP3      H2            -16.4926883614       14.7279443859       24.8627153451  W2        3792            0.0000000000
     10615      3539  TIP3      OH2            -6.6658083614       20.6871843859       12.4245753451  W2        3799            0.0000000000
     10616      3539  TIP3      H1             -6.5693683614       21.3538843859       11.7445453451  W2        3799            0.0000000000
     10617      3539  TIP3      H2             -6.8058483614       19.8718143859       11.9431253451  W2        3799            0.0000000000
     10618      3540  TIP3      OH2            -7.4963383614       22.0674243859       18.0456053451  W2        3800            0.0000000000
     10619      3540  TIP3      H1             -7.6464583614       21.1222843859       18.0253853451  W2        3800            0.0000000000
     10620      3540  TIP3      H2             -7.8498883614       22.3485643859       18.8895153451  W2        3800            0.0000000000
     10621      3541  TIP3      OH2            -7.4184283614       18.0951643859       11.5421253451  W2        3802            0.0000000000
     10622      3541  TIP3      H1             -6.8078483614       17.7238443859       12.1789453451  W2        3802            0.0000000000
     10623      3541  TIP3      H2             -8.2552783614       17.6738543859       11.7381253451  W2        3802            0.0000000000
     10624      3542  TIP3      OH2            -7.7858583614       19.6500043859       16.5081153451  W2        3803            0.0000000000
     10625      3542  TIP3      H1             -7.5061483614       18.7430443859       16.6322853451  W2        3803            0.0000000000
     10626      3542  TIP3      H2             -7.0266883614       20.0841543859       16.1190353451  W2        3803            0.0000000000
     10627      3543  TIP3      OH2            -7.1740283614       20.2317443859       21.9440053451  W2        3804            0.0000000000
     10628      3543  TIP3      H1             -6.2412283614       20.4437343859       21.9096053451  W2        3804            0.0000000000
     10629      3543  TIP3      H2             -7.4092783614       20.3329543859       22.8663053451  W2        3804            0.0000000000
     10630      3544  TIP3      OH2            -7.1448383614       20.9682743859       24.7199453451  W2        3805            0.0000000000
     10631      3544  TIP3      H1             -7.9877083614       21.2363143859       25.0859253451  W2        3805            0.0000000000
     10632      3544  TIP3      H2             -6.7024083614       21.7904643859       24.5090553451  W2        3805            0.0000000000
     10633      3545  TIP3      OH2            -7.1723783614       16.9129343859       16.5563153451  W2        3808            0.0000000000
     10634      3545  TIP3      H1             -6.9898783614       16.4640843859       17.3818153451  W2        3808            0.0000000000
     10635      3545  TIP3      H2             -7.7720883614       16.3283743859       16.0927753451  W2        3808            0.0000000000
     10636      3546  TIP3      OH2           -21.6423683614       17.7283043859       21.0881553451  W2        3809            0.0000000000
     10637      3546  TIP3      H1            -21.1972083614       16.9365543859       21.3901253451  W2        3809            0.0000000000
     10638      3546  TIP3      H2            -21.1760683614       18.4448243859       21.5187153451  W2        3809            0.0000000000
     10639      3547  TIP3      OH2           -23.3383383614       20.7276043859       22.1571753451  W2        3810            0.0000000000
     10640      3547  TIP3      H1            -22.8463583614       20.5066543859       21.3663753451  W2        3810            0.0000000000
     10641      3547  TIP3      H2            -22.9762483614       21.5679443859       22.4381253451  W2        3810            0.0000000000
     10642      3548  TIP3      OH2            -5.3057583614       16.9807443859       13.0843453451  W2        3812            0.0000000000
     10643      3548  TIP3      H1             -4.8934983614       16.2593143859       12.6091453451  W2        3812            0.0000000000
     10644      3548  TIP3      H2             -4.6241083614       17.6502043859       13.1427753451  W2        3812            0.0000000000
     10645      3549  TIP3      OH2           -23.0246883614       16.9855143859       16.2114153451  W2        3813            0.0000000000
     10646      3549  TIP3      H1            -23.9498483614       17.1941743859       16.0819653451  W2        3813            0.0000000000
     10647      3549  TIP3      H2            -22.5706983614       17.4695943859       15.5216453451  W2        3813            0.0000000000
     10648      3550  TIP3      OH2           -23.0611483614       15.7234143859       24.5556653451  W2        3814            0.0000000000
     10649      3550  TIP3      H1            -23.7260983614       15.4774443859       25.1987553451  W2        3814            0.0000000000
     10650      3550  TIP3      H2            -23.5040183614       16.3454543859       23.9784653451  W2        3814            0.0000000000
     10651      3551  TIP3      OH2           -12.9115183614       16.5964443859       20.5644753451  W2        3816            0.0000000000
     10652      3551  TIP3      H1            -13.5858383614       15.9670043859       20.8200553451  W2        3816            0.0000000000
     10653      3551  TIP3      H2            -12.3475983614       16.1123343859       19.9612653451  W2        3816            0.0000000000
     10654      3552  TIP3      OH2            -7.7687983614       14.7038443859       20.6771853451  W2        3817            0.0000000000
     10655      3552  TIP3      H1             -7.1650383614       15.2513843859       20.1752853451  W2        3817            0.0000000000
     10656      3552  TIP3      H2             -8.6385983614       15.0228843859       20.4365953451  W2        3817            0.0000000000
     10657      3553  TIP3      OH2            -6.0417583614       15.8427143859       19.0102753451  W2        3818            0.0000000000
     10658      3553  TIP3      H1             -5.4300083614       15.3282843859       18.4836353451  W2        3818            0.0000000000
     10659      3553  TIP3      H2             -5.6594183614       16.7199243859       19.0337153451  W2        3818            0.0000000000
     10660      3554  TIP3      OH2           -20.5847683614       15.2304743859       18.3864653451  W2        3819            0.0000000000
     10661      3554  TIP3      H1            -21.3617883614       14.9959643859       17.8790553451  W2        3819            0.0000000000
     10662      3554  TIP3      H2            -20.0544083614       14.4336843859       18.3952653451  W2        3819            0.0000000000
     10663      3555  TIP3      OH2           -21.7484283614       15.0282843859       14.1900753451  W2        3820            0.0000000000
     10664      3555  TIP3      H1            -21.3093583614       15.6393343859       13.5984253451  W2        3820            0.0000000000
     10665      3555  TIP3      H2            -22.3821883614       15.5666943859       14.6640753451  W2        3820            0.0000000000
     10666      3556  TIP3      OH2           -16.0055083614       15.1571843859       18.1997753451  W2        3821            0.0000000000
     10667      3556  TIP3      H1            -15.1311683614       15.5456143859       18.1702053451  W2        3821            0.0000000000
     10668      3556  TIP3      H2            -16.1414283614       14.9419643859       19.1224953451  W2        3821            0.0000000000
     10669      3557  TIP3      OH2           -10.4486683614       15.1871643859       19.8489453451  W2        3822            0.0000000000
     10670      3557  TIP3      H1            -10.3725083614       15.2823243859       18.8995453451  W2        3822            0.0000000000
     10671      3557  TIP3      H2            -10.7237483614       14.2794543859       19.9778553451  W2        3822            0.0000000000
     10672      3558  TIP3      OH2            -9.0954083614       15.2129443859       15.5414453451  W2        3823            0.0000000000
     10673      3558  TIP3      H1             -9.7982983614       15.8278643859       15.3315853451  W2        3823            0.0000000000
     10674      3558  TIP3      H2             -9.5402683614       14.3756143859       15.6725353451  W2        3823            0.0000000000
     10675      3559  TIP3      OH2           -19.8875183614       16.9444343859       12.6324853451  W2        3824            0.0000000000
     10676      3559  TIP3      H1            -19.3961783614       16.3146743859       12.1050353451  W2        3824            0.0000000000
     10677      3559  TIP3      H2            -19.2638883614       17.2403743859       13.2956053451  W2        3824            0.0000000000
     10678      3560  TIP3      OH2           -14.8615083614       17.2375843859       15.0895353451  W2        3825            0.0000000000
     10679      3560  TIP3      H1            -14.6833783614       16.5909043859       15.7723953451  W2        3825            0.0000000000
     10680      3560  TIP3      H2            -14.9148883614       18.0713543859       15.5566453451  W2        3825            0.0000000000
     10681      3561  TIP3      OH2            -1.3488783614       23.2559843859       23.3570253451  W2        3829            0.0000000000
     10682      3561  TIP3      H1             -1.3076683614       22.6303143859       24.0802653451  W2        3829            0.0000000000
     10683      3561  TIP3      H2             -0.6461083614       23.8798443859       23.5390653451  W2        3829            0.0000000000
     10684      3562  TIP3      OH2            -3.8155183614       21.3661343859       17.2848153451  W2        3830            0.0000000000
     10685      3562  TIP3      H1             -4.2631783614       22.2120043859       17.2664653451  W2        3830            0.0000000000
     10686      3562  TIP3      H2             -4.3763983614       20.7865543859       16.7693253451  W2        3830            0.0000000000
     10687      3563  TIP3      OH2            13.3350416386       17.6754443859       23.0307553451  W2        3831            0.0000000000
     10688      3563  TIP3      H1             13.3842616386       18.2855643859       23.7666653451  W2        3831            0.0000000000
     10689      3563  TIP3      H2             13.7605516386       18.1365343859       22.3078653451  W2        3831            0.0000000000
     10690      3564  TIP3      OH2             7.8127616386       20.4681543859       22.4976153451  W2        3832            0.0000000000
     10691      3564  TIP3      H1              7.9553516386       19.5218543859       22.5177753451  W2        3832            0.0000000000
     10692      3564  TIP3      H2              7.7066616386       20.6751343859       21.5691053451  W2        3832            0.0000000000
     10693      3565  TIP3      OH2             0.9675916386       18.5697943859       19.7700953451  W2        3833            0.0000000000
     10694      3565  TIP3      H1              1.0107016386       19.4296443859       19.3517253451  W2        3833            0.0000000000
     10695      3565  TIP3      H2              0.5100016386       18.0172643859       19.1364153451  W2        3833            0.0000000000
     10696      3566  TIP3      OH2             8.6898616386       18.7003543859       18.1709253451  W2        3834            0.0000000000
     10697      3566  TIP3      H1              9.3362916386       18.3716743859       18.7956853451  W2        3834            0.0000000000
     10698      3566  TIP3      H2              9.1998016386       19.2182543859       17.5480653451  W2        3834            0.0000000000
     10699      3567  TIP3      OH2            -2.4122583614       20.9663743859       20.5322353451  W2        3835            0.0000000000
     10700      3567  TIP3      H1             -1.7585983614       20.4165443859       20.9642453451  W2        3835            0.0000000000
     10701      3567  TIP3      H2             -2.3883283614       20.6922743859       19.6154353451  W2        3835            0.0000000000
     10702      3568  TIP3      OH2             2.7441916386       22.5165043859       19.7473853451  W2        3836            0.0000000000
     10703      3568  TIP3      H1              3.3602916386       21.9900443859       20.2567853451  W2        3836            0.0000000000
     10704      3568  TIP3      H2              2.1580716386       21.8763743859       19.3437453451  W2        3836            0.0000000000
     10705      3569  TIP3      OH2            13.7265016386       19.1533643859       25.2667353451  W2        3837            0.0000000000
     10706      3569  TIP3      H1             13.0379616386       19.8114343859       25.1713953451  W2        3837            0.0000000000
     10707      3569  TIP3      H2             13.7419616386       18.9561543859       26.2032753451  W2        3837            0.0000000000
     10708      3570  TIP3      OH2            -0.2222183614       17.4876343859       23.8441753451  W2        3838            0.0000000000
     10709      3570  TIP3      H1             -0.4410483614       18.0176943859       23.0777753451  W2        3838            0.0000000000
     10710      3570  TIP3      H2             -0.8901283614       17.7141843859       24.4913153451  W2        3838            0.0000000000
     10711      3571  TIP3      OH2            10.4537016386       17.9912843859       20.1515153451  W2        3839            0.0000000000
     10712      3571  TIP3      H1             10.2385016386       17.2256243859       20.6841153451  W2        3839            0.0000000000
     10713      3571  TIP3      H2             11.1094416386       18.4637443859       20.6643653451  W2        3839            0.0000000000
     10714      3572  TIP3      OH2            -0.6284883614       19.3798143859       21.7963953451  W2        3840            0.0000000000
     10715      3572  TIP3      H1             -0.0148583614       20.0125743859       22.1696353451  W2        3840            0.0000000000
     10716      3572  TIP3      H2             -0.1164183614       18.9073143859       21.1400853451  W2        3840            0.0000000000
     10717      3573  TIP3      OH2            10.8011116386       16.7064143859       23.8308653451  W2        3841            0.0000000000
     10718      3573  TIP3      H1             10.0650316386       17.3171243859       23.7929953451  W2        3841            0.0000000000
     10719      3573  TIP3      H2             11.4845116386       17.1213143859       23.3045053451  W2        3841            0.0000000000
     10720      3574  TIP3      OH2             3.8042516386       14.7931443859       21.2966653451  W2        3842            0.0000000000
     10721      3574  TIP3      H1              3.6866716386       13.8447443859       21.2424953451  W2        3842            0.0000000000
     10722      3574  TIP3      H2              2.9492616386       15.1257543859       21.5697753451  W2        3842            0.0000000000
     10723      3575  TIP3      OH2             6.1246616386       22.0881343859       12.8357453451  W2        3843            0.0000000000
     10724      3575  TIP3      H1              6.8256516386       22.1108243859       13.4871453451  W2        3843            0.0000000000
     10725      3575  TIP3      H2              6.4269516386       21.4601043859       12.1796753451  W2        3843            0.0000000000
     10726      3576  TIP3      OH2            13.4401316386       23.0085543859       24.0906853451  W2        3844            0.0000000000
     10727      3576  TIP3      H1             12.7875416386       23.7031143859       24.1797753451  W2        3844            0.0000000000
     10728      3576  TIP3      H2             13.9051616386       23.2186443859       23.2808453451  W2        3844            0.0000000000
     10729      3577  TIP3      OH2             9.3738616386       22.0142943859       25.8165353451  W2        3845            0.0000000000
     10730      3577  TIP3      H1              9.4537716386       22.7777343859       26.3883853451  W2        3845            0.0000000000
     10731      3577  TIP3      H2              8.7726316386       22.2935343859       25.1260453451  W2        3845            0.0000000000
     10732      3578  TIP3      OH2             1.4884316386       23.2392143859       22.2648353451  W2        3846            0.0000000000
     10733      3578  TIP3      H1              2.0536816386       23.3606343859       21.5019553451  W2        3846            0.0000000000
     10734      3578  TIP3      H2              1.8073216386       23.8767143859       22.9036853451  W2        3846            0.0000000000
     10735      3579  TIP3      OH2             8.3474616386       23.0023243859       14.4339553451  W2        3847            0.0000000000
     10736      3579  TIP3      H1              8.9270116386       23.1523543859       15.1808453451  W2        3847            0.0000000000
     10737      3579  TIP3      H2              8.7614616386       23.4730643859       13.7105953451  W2        3847            0.0000000000
     10738      3580  TIP3      OH2            12.0463016386       14.7523643859       14.2469253451  W2        3848            0.0000000000
     10739      3580  TIP3      H1             11.1463716386       14.8912643859       14.5419853451  W2        3848            0.0000000000
     10740      3580  TIP3      H2             12.2981416386       15.5838243859       13.8450953451  W2        3848            0.0000000000
     10741      3581  TIP3      OH2             1.0730116386       15.6965943859       22.0742953451  W2        3850            0.0000000000
     10742      3581  TIP3      H1              0.2113816386       15.6094143859       21.6665853451  W2        3850            0.0000000000
     10743      3581  TIP3      H2              1.0505816386       16.5526043859       22.5020553451  W2        3850            0.0000000000
     10744      3582  TIP3      OH2             5.7357916386       15.4186343859       25.4489953451  W2        3851            0.0000000000
     10745      3582  TIP3      H1              6.1561016386       15.0033443859       26.2020553451  W2        3851            0.0000000000
     10746      3582  TIP3      H2              4.8027516386       15.2399643859       25.5661953451  W2        3851            0.0000000000
     10747      3583  TIP3      OH2             5.3975216386       17.9109743859       12.7340753451  W2        3853            0.0000000000
     10748      3583  TIP3      H1              5.1440016386       17.9301343859       13.6568853451  W2        3853            0.0000000000
     10749      3583  TIP3      H2              5.1407316386       17.0395143859       12.4326953451  W2        3853            0.0000000000
     10750      3584  TIP3      OH2             1.1640216386       20.6620443859       23.1693153451  W2        3854            0.0000000000
     10751      3584  TIP3      H1              0.5222316386       20.6217743859       23.8783253451  W2        3854            0.0000000000
     10752      3584  TIP3      H2              1.2012216386       21.5885143859       22.9316153451  W2        3854            0.0000000000
     10753      3585  TIP3      OH2             1.1609316386       20.8830543859       18.0813153451  W2        3855            0.0000000000
     10754      3585  TIP3      H1              0.2682216386       20.5426643859       18.0226953451  W2        3855            0.0000000000
     10755      3585  TIP3      H2              1.6115916386       20.5061443859       17.3256353451  W2        3855            0.0000000000
     10756      3586  TIP3      OH2             6.6964816386       21.2990843859       16.8983953451  W2        3856            0.0000000000
     10757      3586  TIP3      H1              6.2875116386       22.1139443859       16.6068753451  W2        3856            0.0000000000
     10758      3586  TIP3      H2              7.4171016386       21.1590943859       16.2841053451  W2        3856            0.0000000000
     10759      3587  TIP3      OH2             7.7012516386       20.7451243859       19.7123653451  W2        3858            0.0000000000
     10760      3587  TIP3      H1              7.5057016386       21.3508043859       18.9974253451  W2        3858            0.0000000000
     10761      3587  TIP3      H2              7.8825116386       19.9116443859       19.2779953451  W2        3858            0.0000000000
     10762      3588  TIP3      OH2            -1.0859283614       20.9823943859       25.0365153451  W2        3859            0.0000000000
     10763      3588  TIP3      H1             -1.1239883614       21.3825543859       25.9052253451  W2        3859            0.0000000000
     10764      3588  TIP3      H2             -1.5768183614       20.1656343859       25.1268053451  W2        3859            0.0000000000
     10765      3589  TIP3      OH2             2.2798116386       18.3566243859       11.8351153451  W2        3860            0.0000000000
     10766      3589  TIP3      H1              1.8488816386       17.9116343859       12.5648553451  W2        3860            0.0000000000
     10767      3589  TIP3      H2              1.5616816386       18.7282543859       11.3228653451  W2        3860            0.0000000000
     10768      3590  TIP3      OH2            -4.4778483614       18.0985743859       18.8869853451  W2        3861            0.0000000000
     10769      3590  TIP3      H1             -3.8470783614       18.0697843859       19.6063753451  W2        3861            0.0000000000
     10770      3590  TIP3      H2             -4.0284183614       17.6734443859       18.1565753451  W2        3861            0.0000000000
     10771      3591  TIP3      OH2            -3.2036383614       18.8447743859       14.3110253451  W2        3862            0.0000000000
     10772      3591  TIP3      H1             -2.7294683614       19.4357643859       13.7261153451  W2        3862            0.0000000000
     10773      3591  TIP3      H2             -3.9209983614       19.3750643859       14.6580353451  W2        3862            0.0000000000
     10774      3592  TIP3      OH2             6.9651716386       22.3832543859       24.3836053451  W2        3863            0.0000000000
     10775      3592  TIP3      H1              7.2886516386       21.7522243859       23.7406553451  W2        3863            0.0000000000
     10776      3592  TIP3      H2              6.5251016386       21.8484743859       25.0443453451  W2        3863            0.0000000000
     10777      3593  TIP3      OH2             3.7424616386       18.3108043859       19.1677253451  W2        3864            0.0000000000
     10778      3593  TIP3      H1              2.8315716386       18.3674843859       19.4563253451  W2        3864            0.0000000000
     10779      3593  TIP3      H2              4.2477516386       18.2503543859       19.9784453451  W2        3864            0.0000000000
     10780      3594  TIP3      OH2            -1.4291983614       19.9394343859       17.9944853451  W2        3865            0.0000000000
     10781      3594  TIP3      H1             -2.3183983614       20.0389843859       17.6544453451  W2        3865            0.0000000000
     10782      3594  TIP3      H2             -1.1327083614       19.0977343859       17.6482753451  W2        3865            0.0000000000
     10783      3595  TIP3      OH2             2.2239816386       19.9396943859       15.6509453451  W2        3866            0.0000000000
     10784      3595  TIP3      H1              3.1555316386       20.0686943859       15.8292553451  W2        3866            0.0000000000
     10785      3595  TIP3      H2              2.0090116386       20.6091243859       15.0014153451  W2        3866            0.0000000000
     10786      3596  TIP3      OH2             8.1476516386       17.5454343859       22.4319053451  W2        3867            0.0000000000
     10787      3596  TIP3      H1              7.4708116386       17.6767443859       23.0958753451  W2        3867            0.0000000000
     10788      3596  TIP3      H2              7.6621416386       17.3903843859       21.6216753451  W2        3867            0.0000000000
     10789      3597  TIP3      OH2             0.8980016386       21.1339143859       13.2175553451  W2        3868            0.0000000000
     10790      3597  TIP3      H1              0.3555116386       20.7542943859       12.5263153451  W2        3868            0.0000000000
     10791      3597  TIP3      H2              1.7314916386       21.3283843859       12.7889653451  W2        3868            0.0000000000
     10792      3598  TIP3      OH2             5.0624316386       21.0981043859       21.0546853451  W2        3869            0.0000000000
     10793      3598  TIP3      H1              5.6267716386       20.5517643859       20.5076453451  W2        3869            0.0000000000
     10794      3598  TIP3      H2              4.9147716386       20.5762943859       21.8434453451  W2        3869            0.0000000000
     10795      3599  TIP3      OH2             0.0644016386       17.2347143859       17.4731653451  W2        3870            0.0000000000
     10796      3599  TIP3      H1             -0.2526483614       16.3322443859       17.4377053451  W2        3870            0.0000000000
     10797      3599  TIP3      H2              0.8458116386       17.2364543859       16.9203253451  W2        3870            0.0000000000
     10798      3600  TIP3      OH2             3.6890216386       19.4867143859       23.4687253451  W2        3871            0.0000000000
     10799      3600  TIP3      H1              2.8535516386       19.9406643859       23.5789653451  W2        3871            0.0000000000
     10800      3600  TIP3      H2              4.2130816386       19.7625643859       24.2207153451  W2        3871            0.0000000000
     10801      3601  TIP3      OH2             8.1309616386       18.5134743859       13.3526253451  W2        3872            0.0000000000
     10802      3601  TIP3      H1              7.1923816386       18.6250343859       13.2015053451  W2        3872            0.0000000000
     10803      3601  TIP3      H2              8.4281716386       19.3701643859       13.6591953451  W2        3872            0.0000000000
     10804      3602  TIP3      OH2             8.8493116386       20.3807443859       15.0133653451  W2        3873            0.0000000000
     10805      3602  TIP3      H1              9.7412116386       20.2432443859       15.3324853451  W2        3873            0.0000000000
     10806      3602  TIP3      H2              8.9056716386       21.1713543859       14.4767153451  W2        3873            0.0000000000
     10807      3603  TIP3      OH2            13.7341816386       20.5901543859       14.7080353451  W2        3875            0.0000000000
     10808      3603  TIP3      H1             13.1798116386       20.1939543859       14.0357853451  W2        3875            0.0000000000
     10809      3603  TIP3      H2             13.8345416386       21.5006743859       14.4303653451  W2        3875            0.0000000000
     10810      3604  TIP3      OH2            -2.5121783614       23.3747143859       12.9145453451  W2        3876            0.0000000000
     10811      3604  TIP3      H1             -1.8961883614       24.0014343859       13.2940253451  W2        3876            0.0000000000
     10812      3604  TIP3      H2             -3.3739183614       23.6906943859       13.1861953451  W2        3876            0.0000000000
     10813      3605  TIP3      OH2            -1.9999683614       18.2084443859       25.7961453451  W2        3877            0.0000000000
     10814      3605  TIP3      H1             -2.8927383614       18.5469843859       25.7285453451  W2        3877            0.0000000000
     10815      3605  TIP3      H2             -2.0986883614       17.3530543859       26.2142253451  W2        3877            0.0000000000
     10816      3606  TIP3      OH2             6.7343716386       17.9494743859       24.6860053451  W2        3878            0.0000000000
     10817      3606  TIP3      H1              7.4331616386       18.0233443859       25.3359753451  W2        3878            0.0000000000
     10818      3606  TIP3      H2              6.3535116386       17.0849743859       24.8402953451  W2        3878            0.0000000000
     10819      3607  TIP3      OH2             7.5188616386       17.6016443859       15.7832353451  W2        3879            0.0000000000
     10820      3607  TIP3      H1              7.7386916386       18.0731843859       14.9797753451  W2        3879            0.0000000000
     10821      3607  TIP3      H2              8.0772616386       17.9959043859       16.4532953451  W2        3879            0.0000000000
     10822      3608  TIP3      OH2             4.7188516386       19.3295243859       16.6180753451  W2        3880            0.0000000000
     10823      3608  TIP3      H1              5.5311116386       19.8338443859       16.6642453451  W2        3880            0.0000000000
     10824      3608  TIP3      H2              4.4741516386       19.1844943859       17.5320353451  W2        3880            0.0000000000
     10825      3609  TIP3      OH2             5.2544916386       20.3157943859       25.8027353451  W2        3881            0.0000000000
     10826      3609  TIP3      H1              5.3735216386       20.8893343859       26.5597753451  W2        3881            0.0000000000
     10827      3609  TIP3      H2              5.9099516386       19.6277343859       25.9175153451  W2        3881            0.0000000000
     10828      3610  TIP3      OH2             5.6025216386       16.4108243859       17.5561853451  W2        3882            0.0000000000
     10829      3610  TIP3      H1              5.2558716386       17.0278843859       18.2006153451  W2        3882            0.0000000000
     10830      3610  TIP3      H2              6.2612116386       16.9113943859       17.0747353451  W2        3882            0.0000000000
     10831      3611  TIP3      OH2             1.2602216386       17.4737643859       14.2434353451  W2        3883            0.0000000000
     10832      3611  TIP3      H1              1.1767016386       18.3620743859       14.5900753451  W2        3883            0.0000000000
     10833      3611  TIP3      H2              2.1502516386       17.2084343859       14.4751153451  W2        3883            0.0000000000
     10834      3612  TIP3      OH2            10.0611716386       21.9729243859       20.7334353451  W2        3885            0.0000000000
     10835      3612  TIP3      H1              9.2636116386       21.5579443859       20.4049353451  W2        3885            0.0000000000
     10836      3612  TIP3      H2             10.5062816386       21.2822943859       21.2244853451  W2        3885            0.0000000000
     10837      3613  TIP3      OH2            -2.1653283614       20.5652843859       12.4198253451  W2        3886            0.0000000000
     10838      3613  TIP3      H1             -2.2100683614       21.5045943859       12.5985253451  W2        3886            0.0000000000
     10839      3613  TIP3      H2             -3.0530083614       20.3297743859       12.1500353451  W2        3886            0.0000000000
     10840      3614  TIP3      OH2            -1.3571283614       15.3469443859       21.0929253451  W2        3887            0.0000000000
     10841      3614  TIP3      H1             -1.5861483614       15.4061943859       20.1654253451  W2        3887            0.0000000000
     10842      3614  TIP3      H2             -1.7997883614       14.5554943859       21.3993353451  W2        3887            0.0000000000
     10843      3615  TIP3      OH2             3.3303116386       22.2698043859       12.2383153451  W2        3890            0.0000000000
     10844      3615  TIP3      H1              3.1498116386       22.1149243859       11.3111453451  W2        3890            0.0000000000
     10845      3615  TIP3      H2              4.2803616386       22.3776743859       12.2831053451  W2        3890            0.0000000000
     10846      3616  TIP3      OH2             2.3001416386       17.6439943859       24.9070053451  W2        3892            0.0000000000
     10847      3616  TIP3      H1              2.8358916386       18.0956643859       24.2549353451  W2        3892            0.0000000000
     10848      3616  TIP3      H2              1.4481016386       17.5359743859       24.4844153451  W2        3892            0.0000000000
     10849      3617  TIP3      OH2             3.8819816386       23.0836143859       25.1465253451  W2        3893            0.0000000000
     10850      3617  TIP3      H1              4.6324616386       22.9273643859       24.5733053451  W2        3893            0.0000000000
     10851      3617  TIP3      H2              3.5428116386       23.9352743859       24.8710753451  W2        3893            0.0000000000
     10852      3618  TIP3      OH2             3.1056916386       15.1005643859       25.3383653451  W2        3896            0.0000000000
     10853      3618  TIP3      H1              3.0076516386       16.0468843859       25.2329853451  W2        3896            0.0000000000
     10854      3618  TIP3      H2              2.3633116386       14.7279443859       24.8627153451  W2        3896            0.0000000000
     10855      3619  TIP3      OH2            12.1901916386       20.6871843859       12.4245753451  W2        3903            0.0000000000
     10856      3619  TIP3      H1             12.2866316386       21.3538843859       11.7445453451  W2        3903            0.0000000000
     10857      3619  TIP3      H2             12.0501516386       19.8718143859       11.9431253451  W2        3903            0.0000000000
     10858      3620  TIP3      OH2            11.3596616386       22.0674243859       18.0456053451  W2        3904            0.0000000000
     10859      3620  TIP3      H1             11.2095416386       21.1222843859       18.0253853451  W2        3904            0.0000000000
     10860      3620  TIP3      H2             11.0061116386       22.3485643859       18.8895153451  W2        3904            0.0000000000
     10861      3621  TIP3      OH2            11.4375716386       18.0951643859       11.5421253451  W2        3906            0.0000000000
     10862      3621  TIP3      H1             12.0481516386       17.7238443859       12.1789453451  W2        3906            0.0000000000
     10863      3621  TIP3      H2             10.6007216386       17.6738543859       11.7381253451  W2        3906            0.0000000000
     10864      3622  TIP3      OH2            11.0701416386       19.6500043859       16.5081153451  W2        3907            0.0000000000
     10865      3622  TIP3      H1             11.3498516386       18.7430443859       16.6322853451  W2        3907            0.0000000000
     10866      3622  TIP3      H2             11.8293116386       20.0841543859       16.1190353451  W2        3907            0.0000000000
     10867      3623  TIP3      OH2            11.6819716386       20.2317443859       21.9440053451  W2        3908            0.0000000000
     10868      3623  TIP3      H1             12.6147716386       20.4437343859       21.9096053451  W2        3908            0.0000000000
     10869      3623  TIP3      H2             11.4467216386       20.3329543859       22.8663053451  W2        3908            0.0000000000
     10870      3624  TIP3      OH2            11.7111616386       20.9682743859       24.7199453451  W2        3909            0.0000000000
     10871      3624  TIP3      H1             10.8682916386       21.2363143859       25.0859253451  W2        3909            0.0000000000
     10872      3624  TIP3      H2             12.1535916386       21.7904643859       24.5090553451  W2        3909            0.0000000000
     10873      3625  TIP3      OH2            11.6836216386       16.9129343859       16.5563153451  W2        3912            0.0000000000
     10874      3625  TIP3      H1             11.8661216386       16.4640843859       17.3818153451  W2        3912            0.0000000000
     10875      3625  TIP3      H2             11.0839116386       16.3283743859       16.0927753451  W2        3912            0.0000000000
     10876      3626  TIP3      OH2            -2.7863683614       17.7283043859       21.0881553451  W2        3913            0.0000000000
     10877      3626  TIP3      H1             -2.3412083614       16.9365543859       21.3901253451  W2        3913            0.0000000000
     10878      3626  TIP3      H2             -2.3200683614       18.4448243859       21.5187153451  W2        3913            0.0000000000
     10879      3627  TIP3      OH2            -4.4823383614       20.7276043859       22.1571753451  W2        3914            0.0000000000
     10880      3627  TIP3      H1             -3.9903583614       20.5066543859       21.3663753451  W2        3914            0.0000000000
     10881      3627  TIP3      H2             -4.1202483614       21.5679443859       22.4381253451  W2        3914            0.0000000000
     10882      3628  TIP3      OH2            13.5502416386       16.9807443859       13.0843453451  W2        3916            0.0000000000
     10883      3628  TIP3      H1             13.9625016386       16.2593143859       12.6091453451  W2        3916            0.0000000000
     10884      3628  TIP3      H2             14.2318916386       17.6502043859       13.1427753451  W2        3916            0.0000000000
     10885      3629  TIP3      OH2            -4.1686883614       16.9855143859       16.2114153451  W2        3917            0.0000000000
     10886      3629  TIP3      H1             -5.0938483614       17.1941743859       16.0819653451  W2        3917            0.0000000000
     10887      3629  TIP3      H2             -3.7146983614       17.4695943859       15.5216453451  W2        3917            0.0000000000
     10888      3630  TIP3      OH2            -4.2051483614       15.7234143859       24.5556653451  W2        3918            0.0000000000
     10889      3630  TIP3      H1             -4.8700983614       15.4774443859       25.1987553451  W2        3918            0.0000000000
     10890      3630  TIP3      H2             -4.6480183614       16.3454543859       23.9784653451  W2        3918            0.0000000000
     10891      3631  TIP3      OH2             5.9444816386       16.5964443859       20.5644753451  W2        3920            0.0000000000
     10892      3631  TIP3      H1              5.2701616386       15.9670043859       20.8200553451  W2        3920            0.0000000000
     10893      3631  TIP3      H2              6.5084016386       16.1123343859       19.9612653451  W2        3920            0.0000000000
     10894      3632  TIP3      OH2            11.0872016386       14.7038443859       20.6771853451  W2        3921            0.0000000000
     10895      3632  TIP3      H1             11.6909616386       15.2513843859       20.1752853451  W2        3921            0.0000000000
     10896      3632  TIP3      H2             10.2174016386       15.0228843859       20.4365953451  W2        3921            0.0000000000
     10897      3633  TIP3      OH2            12.8142416386       15.8427143859       19.0102753451  W2        3922            0.0000000000
     10898      3633  TIP3      H1             13.4259916386       15.3282843859       18.4836353451  W2        3922            0.0000000000
     10899      3633  TIP3      H2             13.1965816386       16.7199243859       19.0337153451  W2        3922            0.0000000000
     10900      3634  TIP3      OH2            -1.7287683614       15.2304743859       18.3864653451  W2        3923            0.0000000000
     10901      3634  TIP3      H1             -2.5057883614       14.9959643859       17.8790553451  W2        3923            0.0000000000
     10902      3634  TIP3      H2             -1.1984083614       14.4336843859       18.3952653451  W2        3923            0.0000000000
     10903      3635  TIP3      OH2            -2.8924283614       15.0282843859       14.1900753451  W2        3924            0.0000000000
     10904      3635  TIP3      H1             -2.4533583614       15.6393343859       13.5984253451  W2        3924            0.0000000000
     10905      3635  TIP3      H2             -3.5261883614       15.5666943859       14.6640753451  W2        3924            0.0000000000
     10906      3636  TIP3      OH2             2.8504916386       15.1571843859       18.1997753451  W2        3925            0.0000000000
     10907      3636  TIP3      H1              3.7248316386       15.5456143859       18.1702053451  W2        3925            0.0000000000
     10908      3636  TIP3      H2              2.7145716386       14.9419643859       19.1224953451  W2        3925            0.0000000000
     10909      3637  TIP3      OH2             8.4073316386       15.1871643859       19.8489453451  W2        3926            0.0000000000
     10910      3637  TIP3      H1              8.4834916386       15.2823243859       18.8995453451  W2        3926            0.0000000000
     10911      3637  TIP3      H2              8.1322516386       14.2794543859       19.9778553451  W2        3926            0.0000000000
     10912      3638  TIP3      OH2             9.7605916386       15.2129443859       15.5414453451  W2        3927            0.0000000000
     10913      3638  TIP3      H1              9.0577016386       15.8278643859       15.3315853451  W2        3927            0.0000000000
     10914      3638  TIP3      H2              9.3157316386       14.3756143859       15.6725353451  W2        3927            0.0000000000
     10915      3639  TIP3      OH2            -1.0315183614       16.9444343859       12.6324853451  W2        3928            0.0000000000
     10916      3639  TIP3      H1             -0.5401783614       16.3146743859       12.1050353451  W2        3928            0.0000000000
     10917      3639  TIP3      H2             -0.4078883614       17.2403743859       13.2956053451  W2        3928            0.0000000000
     10918      3640  TIP3      OH2             3.9944916386       17.2375843859       15.0895353451  W2        3929            0.0000000000
     10919      3640  TIP3      H1              4.1726216386       16.5909043859       15.7723953451  W2        3929            0.0000000000
     10920      3640  TIP3      H2              3.9411116386       18.0713543859       15.5566453451  W2        3929            0.0000000000
     10921      3641  TIP3      OH2            17.5071216386       23.2559843859       23.3570253451  W2        3933            0.0000000000
     10922      3641  TIP3      H1             17.5483316386       22.6303143859       24.0802653451  W2        3933            0.0000000000
     10923      3641  TIP3      H2             18.2098916386       23.8798443859       23.5390653451  W2        3933            0.0000000000
     10924      3642  TIP3      OH2            15.0404816386       21.3661343859       17.2848153451  W2        3934            0.0000000000
     10925      3642  TIP3      H1             14.5928216386       22.2120043859       17.2664653451  W2        3934            0.0000000000
     10926      3642  TIP3      H2             14.4796016386       20.7865543859       16.7693253451  W2        3934            0.0000000000
     10927      3643  TIP3      OH2            19.8235916386       18.5697943859       19.7700953451  W2        3935            0.0000000000
     10928      3643  TIP3      H1             19.8667016386       19.4296443859       19.3517253451  W2        3935            0.0000000000
     10929      3643  TIP3      H2             19.3660016386       18.0172643859       19.1364153451  W2        3935            0.0000000000
     10930      3644  TIP3      OH2            16.4437416386       20.9663743859       20.5322353451  W2        3936            0.0000000000
     10931      3644  TIP3      H1             17.0974016386       20.4165443859       20.9642453451  W2        3936            0.0000000000
     10932      3644  TIP3      H2             16.4676716386       20.6922743859       19.6154353451  W2        3936            0.0000000000
     10933      3645  TIP3      OH2            21.6001916386       22.5165043859       19.7473853451  W2        3937            0.0000000000
     10934      3645  TIP3      H1             22.2162916386       21.9900443859       20.2567853451  W2        3937            0.0000000000
     10935      3645  TIP3      H2             21.0140716386       21.8763743859       19.3437453451  W2        3937            0.0000000000
     10936      3646  TIP3      OH2            18.6337816386       17.4876343859       23.8441753451  W2        3938            0.0000000000
     10937      3646  TIP3      H1             18.4149516386       18.0176943859       23.0777753451  W2        3938            0.0000000000
     10938      3646  TIP3      H2             17.9658716386       17.7141843859       24.4913153451  W2        3938            0.0000000000
     10939      3647  TIP3      OH2            18.2275116386       19.3798143859       21.7963953451  W2        3939            0.0000000000
     10940      3647  TIP3      H1             18.8411416386       20.0125743859       22.1696353451  W2        3939            0.0000000000
     10941      3647  TIP3      H2             18.7395816386       18.9073143859       21.1400853451  W2        3939            0.0000000000
     10942      3648  TIP3      OH2            22.6602516386       14.7931443859       21.2966653451  W2        3940            0.0000000000
     10943      3648  TIP3      H1             22.5426716386       13.8447443859       21.2424953451  W2        3940            0.0000000000
     10944      3648  TIP3      H2             21.8052616386       15.1257543859       21.5697753451  W2        3940            0.0000000000
     10945      3649  TIP3      OH2            20.3444316386       23.2392143859       22.2648353451  W2        3941            0.0000000000
     10946      3649  TIP3      H1             20.9096816386       23.3606343859       21.5019553451  W2        3941            0.0000000000
     10947      3649  TIP3      H2             20.6633216386       23.8767143859       22.9036853451  W2        3941            0.0000000000
     10948      3650  TIP3      OH2            19.9290116386       15.6965943859       22.0742953451  W2        3942            0.0000000000
     10949      3650  TIP3      H1             19.0673816386       15.6094143859       21.6665853451  W2        3942            0.0000000000
     10950      3650  TIP3      H2             19.9065816386       16.5526043859       22.5020553451  W2        3942            0.0000000000
     10951      3651  TIP3      OH2            20.0200216386       20.6620443859       23.1693153451  W2        3943            0.0000000000
     10952      3651  TIP3      H1             19.3782316386       20.6217743859       23.8783253451  W2        3943            0.0000000000
     10953      3651  TIP3      H2             20.0572216386       21.5885143859       22.9316153451  W2        3943            0.0000000000
     10954      3652  TIP3      OH2            20.0169316386       20.8830543859       18.0813153451  W2        3944            0.0000000000
     10955      3652  TIP3      H1             19.1242216386       20.5426643859       18.0226953451  W2        3944            0.0000000000
     10956      3652  TIP3      H2             20.4675916386       20.5061443859       17.3256353451  W2        3944            0.0000000000
     10957      3653  TIP3      OH2            17.7700716386       20.9823943859       25.0365153451  W2        3945            0.0000000000
     10958      3653  TIP3      H1             17.7320116386       21.3825543859       25.9052253451  W2        3945            0.0000000000
     10959      3653  TIP3      H2             17.2791816386       20.1656343859       25.1268053451  W2        3945            0.0000000000
     10960      3654  TIP3      OH2            21.1358116386       18.3566243859       11.8351153451  W2        3946            0.0000000000
     10961      3654  TIP3      H1             20.7048816386       17.9116343859       12.5648553451  W2        3946            0.0000000000
     10962      3654  TIP3      H2             20.4176816386       18.7282543859       11.3228653451  W2        3946            0.0000000000
     10963      3655  TIP3      OH2            14.3781516386       18.0985743859       18.8869853451  W2        3947            0.0000000000
     10964      3655  TIP3      H1             15.0089216386       18.0697843859       19.6063753451  W2        3947            0.0000000000
     10965      3655  TIP3      H2             14.8275816386       17.6734443859       18.1565753451  W2        3947            0.0000000000
     10966      3656  TIP3      OH2            15.6523616386       18.8447743859       14.3110253451  W2        3948            0.0000000000
     10967      3656  TIP3      H1             16.1265316386       19.4357643859       13.7261153451  W2        3948            0.0000000000
     10968      3656  TIP3      H2             14.9350016386       19.3750643859       14.6580353451  W2        3948            0.0000000000
     10969      3657  TIP3      OH2            22.5984616386       18.3108043859       19.1677253451  W2        3949            0.0000000000
     10970      3657  TIP3      H1             21.6875716386       18.3674843859       19.4563253451  W2        3949            0.0000000000
     10971      3657  TIP3      H2             23.1037516386       18.2503543859       19.9784453451  W2        3949            0.0000000000
     10972      3658  TIP3      OH2            17.4268016386       19.9394343859       17.9944853451  W2        3950            0.0000000000
     10973      3658  TIP3      H1             16.5376016386       20.0389843859       17.6544453451  W2        3950            0.0000000000
     10974      3658  TIP3      H2             17.7232916386       19.0977343859       17.6482753451  W2        3950            0.0000000000
     10975      3659  TIP3      OH2            21.0799816386       19.9396943859       15.6509453451  W2        3951            0.0000000000
     10976      3659  TIP3      H1             22.0115316386       20.0686943859       15.8292553451  W2        3951            0.0000000000
     10977      3659  TIP3      H2             20.8650116386       20.6091243859       15.0014153451  W2        3951            0.0000000000
     10978      3660  TIP3      OH2            19.7540016386       21.1339143859       13.2175553451  W2        3952            0.0000000000
     10979      3660  TIP3      H1             19.2115116386       20.7542943859       12.5263153451  W2        3952            0.0000000000
     10980      3660  TIP3      H2             20.5874916386       21.3283843859       12.7889653451  W2        3952            0.0000000000
     10981      3661  TIP3      OH2            18.9204016386       17.2347143859       17.4731653451  W2        3953            0.0000000000
     10982      3661  TIP3      H1             18.6033516386       16.3322443859       17.4377053451  W2        3953            0.0000000000
     10983      3661  TIP3      H2             19.7018116386       17.2364543859       16.9203253451  W2        3953            0.0000000000
     10984      3662  TIP3      OH2            22.5450216386       19.4867143859       23.4687253451  W2        3954            0.0000000000
     10985      3662  TIP3      H1             21.7095516386       19.9406643859       23.5789653451  W2        3954            0.0000000000
     10986      3662  TIP3      H2             23.0690816386       19.7625643859       24.2207153451  W2        3954            0.0000000000
     10987      3663  TIP3      OH2            16.3438216386       23.3747143859       12.9145453451  W2        3956            0.0000000000
     10988      3663  TIP3      H1             16.9598116386       24.0014343859       13.2940253451  W2        3956            0.0000000000
     10989      3663  TIP3      H2             15.4820816386       23.6906943859       13.1861953451  W2        3956            0.0000000000
     10990      3664  TIP3      OH2            16.8560316386       18.2084443859       25.7961453451  W2        3957            0.0000000000
     10991      3664  TIP3      H1             15.9632616386       18.5469843859       25.7285453451  W2        3957            0.0000000000
     10992      3664  TIP3      H2             16.7573116386       17.3530543859       26.2142253451  W2        3957            0.0000000000
     10993      3665  TIP3      OH2            20.1162216386       17.4737643859       14.2434353451  W2        3958            0.0000000000
     10994      3665  TIP3      H1             20.0327016386       18.3620743859       14.5900753451  W2        3958            0.0000000000
     10995      3665  TIP3      H2             21.0062516386       17.2084343859       14.4751153451  W2        3958            0.0000000000
     10996      3666  TIP3      OH2            16.6906716386       20.5652843859       12.4198253451  W2        3959            0.0000000000
     10997      3666  TIP3      H1             16.6459316386       21.5045943859       12.5985253451  W2        3959            0.0000000000
     10998      3666  TIP3      H2             15.8029916386       20.3297743859       12.1500353451  W2        3959            0.0000000000
     10999      3667  TIP3      OH2            17.4988716386       15.3469443859       21.0929253451  W2        3960            0.0000000000
     11000      3667  TIP3      H1             17.2698516386       15.4061943859       20.1654253451  W2        3960            0.0000000000
     11001      3667  TIP3      H2             17.0562116386       14.5554943859       21.3993353451  W2        3960            0.0000000000
     11002      3668  TIP3      OH2            22.1863116386       22.2698043859       12.2383153451  W2        3963            0.0000000000
     11003      3668  TIP3      H1             22.0058116386       22.1149243859       11.3111453451  W2        3963            0.0000000000
     11004      3668  TIP3      H2             23.1363616386       22.3776743859       12.2831053451  W2        3963            0.0000000000
     11005      3669  TIP3      OH2            21.1561416386       17.6439943859       24.9070053451  W2        3965            0.0000000000
     11006      3669  TIP3      H1             21.6918916386       18.0956643859       24.2549353451  W2        3965            0.0000000000
     11007      3669  TIP3      H2             20.3041016386       17.5359743859       24.4844153451  W2        3965            0.0000000000
     11008      3670  TIP3      OH2            22.7379816386       23.0836143859       25.1465253451  W2        3966            0.0000000000
     11009      3670  TIP3      H1             23.4884616386       22.9273643859       24.5733053451  W2        3966            0.0000000000
     11010      3670  TIP3      H2             22.3988116386       23.9352743859       24.8710753451  W2        3966            0.0000000000
     11011      3671  TIP3      OH2            21.9616916386       15.1005643859       25.3383653451  W2        3968            0.0000000000
     11012      3671  TIP3      H1             21.8636516386       16.0468843859       25.2329853451  W2        3968            0.0000000000
     11013      3671  TIP3      H2             21.2193116386       14.7279443859       24.8627153451  W2        3968            0.0000000000
     11014      3672  TIP3      OH2            16.0696316386       17.7283043859       21.0881553451  W2        3974            0.0000000000
     11015      3672  TIP3      H1             16.5147916386       16.9365543859       21.3901253451  W2        3974            0.0000000000
     11016      3672  TIP3      H2             16.5359316386       18.4448243859       21.5187153451  W2        3974            0.0000000000
     11017      3673  TIP3      OH2            14.3736616386       20.7276043859       22.1571753451  W2        3975            0.0000000000
     11018      3673  TIP3      H1             14.8656416386       20.5066543859       21.3663753451  W2        3975            0.0000000000
     11019      3673  TIP3      H2             14.7357516386       21.5679443859       22.4381253451  W2        3975            0.0000000000
     11020      3674  TIP3      OH2            14.6873116386       16.9855143859       16.2114153451  W2        3976            0.0000000000
     11021      3674  TIP3      H1             13.7621516386       17.1941743859       16.0819653451  W2        3976            0.0000000000
     11022      3674  TIP3      H2             15.1413016386       17.4695943859       15.5216453451  W2        3976            0.0000000000
     11023      3675  TIP3      OH2            14.6508516386       15.7234143859       24.5556653451  W2        3977            0.0000000000
     11024      3675  TIP3      H1             13.9859016386       15.4774443859       25.1987553451  W2        3977            0.0000000000
     11025      3675  TIP3      H2             14.2079816386       16.3454543859       23.9784653451  W2        3977            0.0000000000
     11026      3676  TIP3      OH2            17.1272316386       15.2304743859       18.3864653451  W2        3978            0.0000000000
     11027      3676  TIP3      H1             16.3502116386       14.9959643859       17.8790553451  W2        3978            0.0000000000
     11028      3676  TIP3      H2             17.6575916386       14.4336843859       18.3952653451  W2        3978            0.0000000000
     11029      3677  TIP3      OH2            15.9635716386       15.0282843859       14.1900753451  W2        3979            0.0000000000
     11030      3677  TIP3      H1             16.4026416386       15.6393343859       13.5984253451  W2        3979            0.0000000000
     11031      3677  TIP3      H2             15.3298116386       15.5666943859       14.6640753451  W2        3979            0.0000000000
     11032      3678  TIP3      OH2            21.7064916386       15.1571843859       18.1997753451  W2        3980            0.0000000000
     11033      3678  TIP3      H1             22.5808316386       15.5456143859       18.1702053451  W2        3980            0.0000000000
     11034      3678  TIP3      H2             21.5705716386       14.9419643859       19.1224953451  W2        3980            0.0000000000
     11035      3679  TIP3      OH2            17.8244816386       16.9444343859       12.6324853451  W2        3981            0.0000000000
     11036      3679  TIP3      H1             18.3158216386       16.3146743859       12.1050353451  W2        3981            0.0000000000
     11037      3679  TIP3      H2             18.4481116386       17.2403743859       13.2956053451  W2        3981            0.0000000000
     11038      3680  TIP3      OH2            22.8504916386       17.2375843859       15.0895353451  W2        3982            0.0000000000
     11039      3680  TIP3      H1             23.0286216386       16.5909043859       15.7723953451  W2        3982            0.0000000000
     11040      3680  TIP3      H2             22.7971116386       18.0713543859       15.5566453451  W2        3982            0.0000000000
